# vtk DataFile Version 5.1
vtk output
ASCII
DATASET POLYDATA
POINTS 2381 double
14.040000558 43.470001727 157.5 14.175000563 43.470001727 158 14.310000569 43.470001727 158 
14.445000574 43.335001722 158 14.580000579 43.335001722 158 14.715000585 43.200001717 158 
14.85000059 43.200001717 158 14.985000595 43.065001711 158 15.120000601 43.065001711 158.5 
15.255000606 42.930001706 158.5 15.390000612 42.930001706 158.5 15.525000617 42.795001701 158.5 
15.660000622 42.795001701 158.5 15.795000628 42.795001701 158.5 15.930000633 42.795001701 158.5 
16.065000638 42.795001701 158.5 16.200000644 42.795001701 158.5 16.335000649 42.660001695 158.5 
16.470000654 42.660001695 158.5 16.60500066 42.660001695 158.5 16.740000665 42.660001695 158.5 
16.875000671 42.660001695 158.5 17.010000676 42.660001695 159 17.145000681 42.660001695 159 
17.280000687 42.660001695 159 17.415000692 42.660001695 159 17.550000697 42.660001695 159 
17.685000703 42.660001695 159 17.820000708 42.52500169 159 17.955000713 42.52500169 159 
18.090000719 42.52500169 159 18.225000724 42.52500169 159 18.36000073 42.52500169 159 
18.495000735 42.52500169 159 18.63000074 42.52500169 159 18.765000746 42.52500169 159 
18.765000746 56.700002253 133.5 18.900000751 42.52500169 159 18.900000751 56.835002258 134 
19.035000756 42.52500169 159 19.035000756 56.835002258 134 19.170000762 42.390001684 159 
19.170000762 56.970002264 134.5 19.305000767 42.390001684 159 19.305000767 57.105002269 135 
19.440000772 42.390001684 159.5 19.440000772 57.105002269 135 19.575000778 42.390001684 159.5 
19.575000778 57.240002275 135 19.710000783 42.390001684 159.5 19.710000783 57.240002275 135.5 
19.845000789 42.390001684 159.5 19.845000789 57.37500228 135.5 19.980000794 42.390001684 159.5 
19.980000794 57.37500228 136 20.115000799 42.390001684 159.5 20.115000799 57.510002285 136.5 
20.250000805 42.390001684 159.5 20.250000805 57.510002285 136.5 20.38500081 42.390001684 159.5 
20.38500081 57.645002291 137 20.520000815 42.390001684 159.5 20.520000815 57.780002296 137 
20.655000821 42.390001684 159.5 20.655000821 57.780002296 137.5 20.790000826 42.255001679 159.5 
20.790000826 57.915002301 137.5 20.925000831 42.255001679 159.5 20.925000831 58.050002307 138 
21.060000837 42.255001679 159.5 21.060000837 58.050002307 138 21.195000842 42.255001679 159.5 
21.195000842 58.185002312 138.5 21.330000848 42.255001679 159.5 21.330000848 58.185002312 138.5 
21.465000853 42.255001679 159.5 21.465000853 58.320002317 139 21.600000858 42.255001679 159.5 
21.600000858 58.455002323 139.5 21.735000864 42.255001679 159.5 21.735000864 58.455002323 139.5 
21.870000869 42.255001679 160 21.870000869 58.590002328 140 22.005000874 42.255001679 160 
22.005000874 58.590002328 140 22.14000088 42.255001679 160 22.14000088 58.590002328 140.5 
22.275000885 42.120001674 160 22.275000885 58.590002328 140.5 22.41000089 42.120001674 160 
22.41000089 58.725002334 141 22.545000896 42.120001674 160 22.545000896 58.725002334 141 
22.680000901 42.120001674 160 22.680000901 58.860002339 141.5 22.815000907 42.120001674 160 
22.815000907 58.860002339 141.5 22.950000912 42.120001674 160 22.950000912 58.860002339 142 
23.085000917 42.120001674 160 23.085000917 58.995002344 142.5 23.220000923 42.120001674 160 
23.220000923 58.995002344 142.5 23.355000928 41.985001668 160 23.355000928 59.13000235 143 
23.490000933 41.985001668 160 23.490000933 59.13000235 143 23.625000939 41.985001668 160 
23.625000939 59.265002355 143.5 23.760000944 41.850001663 160 23.760000944 43.605001733 189 
23.760000944 59.265002355 143.5 23.89500095 41.850001663 160 23.89500095 43.470001727 189 
23.89500095 59.265002355 144 24.030000955 41.850001663 160.5 24.030000955 43.470001727 188.5 
24.030000955 59.40000236 144.5 24.16500096 41.850001663 160.5 24.16500096 43.335001722 188.5 
24.16500096 59.40000236 145 24.300000966 41.850001663 160.5 24.300000966 43.200001717 188 
24.300000966 59.40000236 145.5 24.435000971 41.715001658 160.5 24.435000971 43.065001711 188 
24.435000971 59.535002366 145.5 24.570000976 41.715001658 160.5 24.570000976 42.930001706 187.5 
24.570000976 59.535002366 146 24.705000982 41.715001658 160.5 24.705000982 42.795001701 187.5 
24.705000982 59.670002371 146.5 24.840000987 41.715001658 160.5 24.840000987 42.660001695 187.5 
24.840000987 59.670002371 147 24.975000992 41.715001658 160.5 24.975000992 42.52500169 187 
24.975000992 59.805002376 147.5 25.110000998 41.580001652 160.5 25.110000998 42.52500169 187 
25.110000998 59.805002376 148 25.245001003 41.580001652 160.5 25.245001003 42.390001684 186.5 
25.245001003 59.940002382 148.5 25.380001009 41.580001652 160.5 25.380001009 42.255001679 186.5 
25.380001009 59.940002382 149 25.515001014 41.445001647 160.5 25.515001014 42.255001679 186.5 
25.515001014 59.940002382 149.5 25.650001019 41.445001647 160.5 25.650001019 42.120001674 186 
25.650001019 60.075002387 149.5 25.785001025 41.445001647 161 25.785001025 42.120001674 186 
25.785001025 60.075002387 150 25.92000103 41.445001647 161 25.92000103 42.120001674 185.5 
25.92000103 60.210002393 150.5 26.055001035 38.880001545 156.5 26.055001035 41.445001647 161 
26.055001035 42.120001674 185.5 26.055001035 60.210002393 151 26.190001041 23.89500095 174 
26.190001041 24.030000955 174 26.190001041 24.16500096 174 26.190001041 39.01500155 157 
26.190001041 41.310001642 161 26.190001041 42.120001674 185.5 26.190001041 60.210002393 151.5 
26.325001046 24.300000966 174 26.325001046 24.435000971 174 26.325001046 24.570000976 174 
26.325001046 24.705000982 174 26.325001046 24.840000987 174 26.325001046 39.150001556 157 
26.325001046 41.310001642 161 26.325001046 42.120001674 185 26.325001046 60.345002398 151.5 
26.460001051 24.975000992 174 26.460001051 25.110000998 174 26.460001051 25.245001003 174 
26.460001051 25.380001009 174 26.460001051 25.515001014 174 26.460001051 39.285001561 157 
26.460001051 41.310001642 161 26.460001051 42.120001674 185 26.460001051 59.535002366 145.5 
26.460001051 60.345002398 152 26.595001057 25.650001019 174 26.595001057 25.785001025 174 
26.595001057 25.92000103 174 26.595001057 26.055001035 174 26.595001057 26.190001041 174 
26.595001057 39.285001561 157 26.595001057 41.310001642 161 26.595001057 42.120001674 185 
26.595001057 59.265002355 146 26.595001057 59.40000236 146 26.595001057 59.670002371 145 
26.595001057 60.480002403 152 26.730001062 26.325001046 174 26.730001062 26.460001051 174 
26.730001062 26.595001057 174 26.730001062 26.730001062 174 26.730001062 39.420001566 157 
26.730001062 41.310001642 161 26.730001062 41.985001668 184.5 26.730001062 59.13000235 146 
26.730001062 59.805002376 144.5 26.730001062 59.940002382 144 26.730001062 60.480002403 152.5 
26.865001068 26.865001068 174 26.865001068 27.000001073 174 26.865001068 27.135001078 174 
26.865001068 27.270001084 174 26.865001068 39.555001572 157 26.865001068 41.175001636 161 
26.865001068 41.985001668 184.5 26.865001068 58.860002339 146.5 26.865001068 58.995002344 146.5 
26.865001068 60.075002387 143.5 26.865001068 60.480002403 152.5 27.000001073 27.405001089 174 
27.000001073 27.540001094 174 27.000001073 27.6750011 174 27.000001073 27.810001105 174 
27.000001073 39.690001577 157 27.000001073 41.175001636 161 27.000001073 41.985001668 184.5 
27.000001073 58.590002328 146.5 27.000001073 58.725002334 146.5 27.000001073 60.210002393 143 
27.000001073 60.615002409 153 27.135001078 27.94500111 174 27.135001078 28.080001116 174 
27.135001078 28.215001121 174 27.135001078 39.825001583 157 27.135001078 41.175001636 161 
27.135001078 41.985001668 184 27.135001078 58.320002317 147 27.135001078 58.455002323 147 
27.135001078 59.940002382 142.5 27.135001078 60.075002387 142.5 27.135001078 60.615002409 153.5 
27.270001084 28.350001127 174 27.270001084 28.485001132 174 27.270001084 28.620001137 174 
27.270001084 28.755001143 174 27.270001084 39.825001583 157 27.270001084 41.040001631 161 
27.270001084 41.985001668 184 27.270001084 58.050002307 147.5 27.270001084 58.185002312 147.5 
27.270001084 59.805002376 142.5 27.270001084 60.750002414 153.5 27.405001089 28.890001148 174 
27.405001089 29.025001153 174 27.405001089 29.160001159 174 27.405001089 39.960001588 157 
27.405001089 41.040001631 161 27.405001089 41.985001668 183.5 27.405001089 57.780002296 147.5 
27.405001089 57.915002301 147.5 27.405001089 59.535002366 142 27.405001089 59.670002371 142 
27.405001089 60.750002414 154 27.540001094 29.295001164 174 27.540001094 29.430001169 174 
27.540001094 29.565001175 174 27.540001094 29.70000118 174 27.540001094 39.960001588 157.5 
27.540001094 41.040001631 161.5 27.540001094 41.985001668 183.5 27.540001094 57.645002291 148 
27.540001094 59.40000236 141.5 27.540001094 60.885002419 154.5 27.6750011 29.835001186 174.5 
27.6750011 29.970001191 174.5 27.6750011 30.105001196 174.5 27.6750011 40.095001593 157.5 
27.6750011 41.040001631 161.5 27.6750011 41.985001668 183.5 27.6750011 57.510002285 148 
27.6750011 59.13000235 141.5 27.6750011 59.265002355 141.5 27.6750011 60.885002419 154.5 
27.810001105 30.240001202 174.5 27.810001105 30.375001207 174.5 27.810001105 30.510001212 174.5 
27.810001105 30.645001218 174.5 27.810001105 40.095001593 157.5 27.810001105 41.040001631 161.5 
27.810001105 41.985001668 183.5 27.810001105 57.105002269 148.5 27.810001105 57.240002275 148 
27.810001105 57.37500228 148 27.810001105 58.995002344 141 27.810001105 60.885002419 154.5 
27.94500111 30.780001223 174.5 27.94500111 30.915001228 174.5 27.94500111 40.230001599 157.5 
27.94500111 40.905001625 161.5 27.94500111 41.985001668 183.5 27.94500111 56.970002264 148.5 
27.94500111 58.860002339 141 27.94500111 60.885002419 154.5 28.080001116 30.915001228 174.5 
28.080001116 40.230001599 158 28.080001116 40.905001625 161.5 28.080001116 41.985001668 183 
28.080001116 56.565002248 149 28.080001116 56.700002253 149 28.080001116 56.835002258 149 
[...]
CELL_DATA 2380
SCALARS angle%0A[rad] double
LOOKUP_TABLE default
0 0.57519072802 0.41500528899 0.20724209825 0.10268153852 0.14750157186 0.19706132995 0.06876651985 0.049524171408 
0.069655193865 0.06876651985 0 0.10927512484 0.070882102181 0.20724209825 0.18364127203 0.58043091481 0.62439932012 
0.50344223893 0.48996702194 0.36975559478 0.30412352658 0.22441608326 0.20108999497 0.13519652003 0.10946983845 0.094879908427 
0.037059413449 0.05315965527 0.074542652263 0.037483238814 0.05328936599 0.059397892749 0.026721226131 0.026721226131 0.080126569309 
0.059970078566 0.11010708726 0.10704165154 0.080473511682 0.080473511682 0.03800639731 0.053752285551 0.053752285551 0.053752285551 
0.038054528324 0.037951058558 2.1073424255e-08 2.1073424255e-08 0.037951058558 0.037951058558 0.037951058558 2.1073424255e-08 2.1073424255e-08 
0.037951058558 0.038054528324 0.026915082233 0.026915082233 0.037951058558 0.037951058558 0.037951058558 2.1073424255e-08 2.1073424255e-08 
2.1073424255e-08 0.097041371296 0.085224345466 0.085224345466 0.1111128859 0.13464622533 0.097228218662 0.12050498906 0.12050498906 
0.14491883827 0.14491883827 0.084977746722 0.096901076453 0.096901076453 0.075957913949 0.059969286415 0.059969286415 0.03789651772 
0.03789651772 0.026837456221 0.026837456221 0.037944629343 0.026837456221 0.026837456221 0.03789651772 0.026837456221 0.026837456221 
0.026837456221 0.026837456221 0.03789651772 0.026837456221 0.037944629343 0 0 0.026759464332 0 
0 0 0 0.03789651772 0.026837456221 0.037726723834 0.026837456221 0.026837456221 0.026837456221 
0.026837456221 0.026837456221 0.037944629343 0.026837456221 0.026837456221 0.026837456221 0.059688973594 0.03789651772 0.03789651772 
0.03789651772 0.059969286415 0.084931549555 0.053810620226 0.1075441236 0.11090508352 0.13723897857 0.11112963513 0.11112963513 
0.11112963513 0.11112963513 0.085311065802 0.060348916429 0.053967227959 0.026983613979 0.026983613979 1.4901161194e-08 1.4901161194e-08 
1.4901161194e-08 1.4901161194e-08 1.4901161194e-08 1.4901161194e-08 1.4901161194e-08 1.4901161194e-08 1.4901161194e-08 1.4901161194e-08 1.4901161194e-08 
1.4901161194e-08 1.4901161194e-08 1.4901161194e-08 0.026944376732 0.026944376732 1.4901161194e-08 0.026983613979 0.026983613979 0.026983613979 
0.026983613979 0.026983613979 0.026983613979 0.027149560348 0.060300643582 0.060300643582 0.038165226606 0.02699344294 0.02699344294 
0.02699344294 0.02699344294 0.02699344294 0 0.053947605782 0.060348916429 0.064380948968 0.069452981541 0.076014447916 
0.084813869738 0.097195734459 0.11583685503 0.1469241858 0.2086005204 0.36475182886 0.15048339443 0.32658660225 0.1124290268 
0.11405416391 0.14059008392 0.078775623396 0.059337533416 0.074872442081 0.052694240613 0.082285360866 0.11675751878 0.10779381296 
0.094296518229 0.11747382076 0.14787981375 0.094820926088 0.059233276693 0.058558939486 0.037251038658 0.037251038658 1.4901161194e-08 
0.026379230571 0.037251038658 0.053349186716 0.084083912508 0.07987231694 0.083713434718 0.05315965527 0.05315965527 0.05315965527 
0.05315965527 0.079533085419 0.075202481487 0.079085224597 0.052562094373 0.052562094373 0.083158280281 0.07853242752 0.10668623807 
0.1042525968 0.13140164407 0.10566572529 0.1145367344 0.080517507923 0.071899372578 0.09118803228 0.056517388204 0.056517388204 
0.025350264076 0.035584230574 0.025699994231 0.057969793315 0.057969793315 0.093175685608 0.1649859473 0.17281846953 0.15027293082 
0.13955530067 0.13249716544 0.12990715293 0.13043763239 0.13921628784 0.12918193712 0.15134982182 0.18224212665 0.20245060053 
0.2220595364 0.23130766833 0.24452616587 0.24086399367 0.26961484763 0.30559461777 0.28209895622 0.32347779726 0.29278289936 
0.29017823591 0.26769539705 0.3149323376 0.33253564003 0.30608419831 0.23711471843 0.21464496277 0.1653414065 0.18070592089 
0.17729412677 0.07845587653 0.12401210592 0.051798559694 0.095622741033 0.11634496852 0.096744662329 0.059854964524 0.067944936739 
0.082346893107 0.13139782686 0.12048418284 0.12182090669 0.1096255803 0.14814693227 0.15607902145 0.15123442088 0.15607902145 
0.13567853616 0.097352514103 0.20244825411 0.18890913033 0.23587721488 0.18869441415 0.12653802545 0.15115104486 0.1273279154 
0.15115104486 0.078585938017 0.14904185025 0.079730650287 0.069521152015 0.079237052863 0.10214646679 0.21833371778 0.24771285112 
0.30802224031 0.37021516299 0.40559417502 0.48272557191 0.54885473059 0.63073330016 0.71773293864 0.77053730668 0.8854603393 
0.96516879518 1.0195427245 0.99806385906 1.0785513531 0.95347187812 1.0259069433 0.99345436203 0.89717011671 0.85930444858 
0.76109702808 0.74241053677 0.65405487458 0.52878669187 0.48740261959 0.44807752107 0.41934153643 0.45385488142 0.36723091911 
0.29545908792 0.21327643349 0.30423197881 0.17796796887 0.10908866035 0 0.16134014394 0.13212560978 0.18159857681 
0.15785794617 0.1119504299 0.085442906055 0.17966888837 0.15785794617 0.1119504299 0.085442906055 0.15596923434 0.10880034676 
0 0.28963028646 0.2689349989 0.10993240789 0.031945640026 0.27671723357 0.27007776169 0.22422889118 0.092081797821 
0.048581314124 0.081984841173 0.098515023842 0.12019070268 0.025568767314 0.081984841173 0.12234910535 0.10958776934 0.08926213798 
0.081984841173 0.12234910535 0.10958776934 0.059186730827 0.11091616154 0.24870844728 0.27022562927 0.068954502986 0.10332058544 
0.24458786088 0.25674468107 0.24458786088 0 0.028200074919 0.092245009492 0.12448333528 0.22897422334 0.1624439403 
0.12479941175 0.055439111321 0.10958776934 0.11292464625 0.18752956469 0.14701123845 0.066984217222 0.10958776934 0.12203471881 
0.27022562927 0.22624845852 0.12479941175 0.45877396888 0.41010930983 0.37473134185 0.32609999626 0.18802749946 0.80554147337 
0.80270005681 0.81013286923 0.83645096055 0.79805802793 0.75487032575 0.47632702705 0.43812525907 0.59017843625 0.54679766457 
0.46934534002 0.87618579224 0.88605536098 0.79015551539 0.76451501414 0.74017563997 0.61788367516 0.61788367516 0.30701933026 
0.31055731004 0.31505830301 0.29628351862 0.30869233098 0.32934051905 0.29430839558 0.27890392824 0.21037588866 0.23006918081 
0.18820081101 0.2145261538 0.21044224326 0.20272333913 0.32954161267 0.324846098 0.30971794742 0.24108266169 0.19594516592 
0.12946942928 0.17441851241 0.35090064375 0.29453223238 0.28014769376 0.2667121653 0.18205900714 0.4309925774 0.39609883215 
0.3225001231 0.278481473 0.16510563754 0.1652336331 0.066776546378 0.65473469935 0.57811010847 0.55281844858 0.57475183886 
0.71618729248 0.13471168848 0.58027127144 0.64301301831 0.59692485944 0.72094140111 0.69348121256 1.3531764465 1.3580071759 
1.3453178975 1.4515853647 1.4791413371 1.4565867528 1.3998095575 1.3193841679 1.2728427517 1.2824191315 1.2339158473 
1.1416524224 1.1171773182 1.0963036205 1.0693772421 1.043972365 0.97687978864 0.87501651728 0.83061613029 0.80540220822 
0.80488969087 0.78440084661 0.77980427314 0.45596337551 0.42140111127 0.36433701503 0.33795364294 0.31446531028 0.26334032716 
0.26468443538 0.25390365988 0.24730577041 0.24810304016 0.24543036212 0.24579714497 0.13298064979 2.1073424255e-08 2.1073424255e-08 
0.069768129656 0.069768129656 0.038242153904 0.10131808737 0.10131808737 0.069768129656 0.069768129656 0.038242153904 0.10131808737 
0.10131808737 0.10131808737 0.28710935143 0.17389783749 0.18900951529 0.13675368504 0.13675368504 0.13675368504 0.13675368504 
0.13675368504 0.10511834152 0.10511834152 0.10511834152 0.10511834152 0.10511834152 0.13604374179 0.13604374179 0.10511834152 
0.17414206291 0.17414206291 0.16422162684 0.074975485775 0.070830259222 0.066985555388 0.035673807968 0.035673807968 0.098034561032 
0.098034561032 0.066985555388 0.035673807968 0.035673807968 0.035673807968 0.030998580454 0.028225885396 0.015390770211 0.129601327 
0.057646434903 0.061757911078 0.035673807968 0.066985555388 0.066985555388 0.098216680496 0.10511834152 0.10511834152 0.13675368504 
0.13675368504 0.20531785199 0.21787853143 0.18861949964 0.21048796359 0.23293199939 0.34431350654 0.36200883814 0.38093218701 
0.19808376193 0.21552590838 0.23465786054 0.28149460793 0.30410043654 0.26729939102 0.29473920111 0.32511192938 0.35881614071 
0.39631117989 0.43812125622 0.4261606541 0.48685450222 0.52091586652 0.33231891548 0.32473268156 0.41244417818 0.48805521133 
0.62646668513 0.84956295282 1.0717709121 0.41067453472 0.43763679169 0.56206268459 0.59682565411 0.43358654857 0.46814300409 
0.45894334996 0.50973170114 0.38209195739 0.42974905513 0.20615511648 0.26963534011 0.35793017418 0.14394923965 0.2189456256 
0.81817504787 0.79493796179 0.44622801577 0.26653315077 0.27302022092 0.28671527059 0.16250618653 0.052452078062 0.11575152611 
0.089166092317 0.10273748982 0.12861290054 0.13783683404 0.21406522744 0.20557155721 0.23569794817 0.17661299537 1.1042131409 
1.1621107774 0.12769489155 0.059987107935 0.065937292444 0.0793845407 0.026463789089 0.0793845407 0.026463789089 0.026463789089 
0.065937292444 0.10115582571 0.062077073358 0.090545814037 0.033521730625 0.095844563229 0.031670800291 0.051176211635 0.039428551064 
0.062112726125 0.049338481219 0.11112733323 0.05932392461 0.14804741919 0.065721490138 0.23877215485 0.71476223325 0.68651327146 
0.66218380992 0.56669610838 0.54539392498 0.72299864869 0.63271264489 0.60786108745 0.45205162664 0.32616765123 0.3197247738 
0.17444428466 0.82485190509 0.87664412814 0.89190118792 1.0274205673 1.07780448 1.0918430975 1.0838886901 1.1141260572 
1.0468687036 1.101798279 1.104323156 1.1603770899 1.228806931 1.1713219585 1.166379611 1.3057132973 1.3223765162 
1.3351832193 1.3819523981 1.3550775384 1.3552329302 1.3541979034 1.3536747943 1.2780992029 1.2786642093 1.2911382393 
1.3070317031 1.3264279238 1.3008633852 1.2384474226 1.2531357804 1.2911398625 1.3333597686 1.3797862283 1.3758611886 
1.3497526597 1.3388618297 1.3692131786 1.3857720559 1.34135484 1.2662092661 1.2197979236 1.1490423113 0.98026208309 
0.86853939529 0.69264184321 1.1274967721 0.99359441715 0.91464302155 0.88417565127 0.79659994265 0.74366962477 0.71576690788 
0.72606297866 0.6743055822 0.62293566393 0.61589223229 0.65371158962 0.61346156445 0.57527594543 0.53931888116 0.52103958643 
0.50811800921 0.49118999792 0.47523751806 0.46478545887 0.45061236713 0.45478438562 0.45988753079 0.41230729192 0.39912017027 
0.38670912236 0.37501110459 0.2603487706 0.2603487706 0.2603487706 0.25038800532 0.25038800532 0.99362839178 1.0238880811 
0.66693583757 0.7007159516 0.73743589228 0.77738386537 0.81037153139 0.52027290551 0.57693752762 0.64019293519 0.59915342345 
0.22413712997 0.30991626971 0.41954669139 0.55915890948 0.58419236899 0.55891034706 0.91803084255 0.90943709012 0.92954934675 
1.0476640661 1.0442176795 1.0635641528 1.0842334448 1.0999470503 1.1154134022 1.0988170749 1.1005190492 1.3038459625 
1.3283113966 1.33458718 1.2980974482 1.3675585449 1.3793553968 1.2964242563 1.3076052421 1.0765606286 0.98664333052 
0.98429183224 0.9582939243 0.93932858618 0.61214356221 0.62071654894 0.6087386122 0.59821090688 0.37646727367 0.39671837944 
0.4239861674 0.40262522757 0.40947320391 0.13530351422 0.1855778123 0.21502118897 0.19006123177 0.18240740206 0.23690822665 
0.2873298393 0.24983245861 0.19678105204 0.20278271218 0.2285611199 0.19908631276 0.19989016463 0.17937173236 0.17912538564 
0.12666160917 0.26475377342 0.17515818498 0.071187919528 0.15214658029 0.41643726025 0.72339639233 0.1986052111 0.15187245307 
0.14266045709 0.18025173834 0.25245644235 0.12502757835 0.14266045709 0.16553497979 0.12502757835 0.083450290951 0.19070352111 
0.16465246916 0.096884682307 0.041017765192 0.098174201116 0.17240261424 0.12064569971 0.24605096923 0.18761126035 0.10219625917 
0.060911653056 0.31514372833 0.94495294722 0.84631299152 0.84696263992 0.89499159273 0.83083128722 0.93421307753 0.86331375283 
0.80244531553 0.71552285697 0.72287193086 0.62474088666 0.67658564619 0.6099725862 0.5435951409 0.51449765984 0.4726604686 
0.49640402893 0.41040767625 0.43041502542 0.31193500676 0.26344249669 0.26582723371 0.25436820429 0.29560673395 0.15750158806 
0.18121266194 0.16558496435 0.18076520526 0.19688130428 0.29938839697 0.32720714977 0.18835000875 0.20985745397 0.20942246473 
0.30199619919 0.16151648545 0.16151648545 0.16563114135 0.26316882679 0.2951044664 0.2147719888 0.13465331962 0.16661141779 
0.19747131101 0.2468379569 0.27194788075 0.29560673395 0.29416047636 0.35917154913 0.43803901177 0.47375220843 0.43803901177 
0.51549017579 0.47893873707 0.41939272271 0.41939272271 0.39453288596 0.47680154604 0.43835368171 0.40058577513 0.3229265273 
0.27504139945 0.25438320095 0.23512379849 0.34149327018 0.23198059927 0.22542694281 0.18950568098 0.14809912412 0.1009303824 
0.067818663568 0.063439676906 0.2651973939 0.13763348086 0.063360127791 0.072693266412 0.042591736804 0.084164199232 0.12469932881 
0.27668652984 0.31459062491 0.32673744315 0.2869151931 0.31511131786 0.34622917305 0.51421522223 0.53196983772 0.58426044203 
0.63675595128 0.69552578208 0.69885123638 0.76822733617 0.8205973249 0.80904159743 0.85955446687 0.90826964024 0.96460845726 
0.98778475303 1.0405866015 1.1063537927 1.137294403 1.1253836016 1.122198516 1.1332643199 1.1034809562 1.0805316639 
1.0329532689 1.011289235 0.97825518878 0.89426916452 0.8601318582 0.80758194677 0.77673296984 0.75007063289 0.69546098943 
0.64102758012 0.58709372544 0.55560771984 0.55727082269 0.48214747789 0.44638985452 0.39512857167 0.3458031203 0.29855133046 
0.28739683367 0.28499424504 0.24271774978 0.22114463924 0.23255534976 0.24693460702 0.16400214836 0.13198420319 0.15315581971 
0.1668958189 0.18171198245 0.19764726039 0.20726135941 0.21646425592 0.24240819219 0.33564948067 0.33564948067 0.21706001097 
0.21706001097 0.23945403995 0.25582372157 0.25582372157 0.25582372157 0.35847155517 0.38735709179 0.23475280213 0.23475280213 
0.23475280213 0.23475280213 0.33195902235 0.31470499337 0.10502466953 0.18407595005 0.21463705385 0.30513930873 0.32708436712 
0.17723942466 0.19246344004 0.26710581356 0.27673882137 0.30092227834 0.32619287155 0.33021941164 0.33021941164 0.3806148793 
0.40554625166 0.43142696263 0.2847455759 0.32983388909 0.45826414732 0.45715288376 0.51438431886 0.54033355333 0.41927562553 
0.46640814544 0.51334016127 0.65426780156 0.4942037334 0.45045196431 0.49613455868 0.33290855454 0.33660990958 0.36180436732 
0.23300523105 0.29433332954 0.23242868156 0.27668761755 0.18469414634 0.12594367558 0.057984661427 0.052653898301 0.14720248107 
0.083032994098 0.083032994098 0.037712239009 0.028026466819 0.026573628882 0.10370686302 0.083032994098 0.11352954929 0.052653898301 
0.081269313422 0.17002784686 0.15289885779 0.18469414634 0.13887841521 0.15257384494 0.10306227198 0.10306227198 0.08060784713 
0.070112561312 0.11759795979 0.084792835014 0.11759795979 0.084792835014 0.10006729333 0.058352799149 0.11632511351 0.12154469515 
0.058352799149 0.0834345958 0.058352799149 0.095702978677 0.08767528793 0.08767528793 0.093149726181 0.060315521323 0.026636840456 
0.062940847065 0.034369852254 0.017832455189 0.04476417923 0.031637899529 0.091389371024 0.028590004192 0.084902430899 0.050039851658 
0.14526152357 0.083407403588 0.062594723424 0.19825662371 0.61062336688 0.61375702861 0.49170885812 0.46420088723 0.5187243483 
0.49576190634 0.39373691086 0.95188902559 1.1734960712 0.029357839607 0.3480235731 1.0236498444 0.30336501828 0.29007233439 
0.29603838951 0.33653039389 0.35525434039 0.33906460025 0.29706451653 0.29354007143 0.35456963872 0.36293347542 0.34154548889 
0.36694926486 0.39591701151 0.43303842915 0.39633803848 0.44118981043 0.51260440458 0.47822908285 0.44420142923 0.42283417413 
0.40275393673 0.37184499289 0.33596596738 0.30167721343 0.33711869733 0.29556538628 0.28173542548 0.25019739392 0.21800166092 
0.28405013248 0.26155472972 0.21885438884 0.20843001707 0.17546765599 0.17546765599 0.16775563657 0.10823642303 0.14713308547 
0.17610269868 0.19703690095 0.17565522615 0.18760081225 0.27334309947 0.14668916256 0.14668916256 0.23591726224 0.27395312116 
0.31239776779 0.23591726224 0.25494970548 0.28673119927 0.31012838578 0.31012838578 0.37976675642 0.40258005154 0.20292936072 
0.38067327233 0.40521936369 0.4306714186 0.45704551948 0.33728306948 0.46137223249 0.33229136663 0.35472191579 0.37827415331 
0.28881135516 0.37480405452 0.39961957562 0.30137679902 0.3372315055 0.37616357257 0.38069582534 0.39917172836 0.35455941711 
0.37298265343 0.35152358395 0.29280547295 0.31182450378 0.31542878933 0.24442237159 0.20888966497 0.16877402506 0.12444014227 
0.16309725104 0.11375528591 0.9766346579 1.4489347527 1.3327874764 1.3115052807 1.3884422885 1.4291118653 1.1526320346 
1.1379798279 1.1950441664 1.0826151989 0.81314777201 0.8095848844 0.77028355787 0.35014598093 0.33510840605 0.27162437779 
0.076906142881 0.12634307652 0.03270228454 0.045742218057 0.27107808376 0.24022201068 0.20598713955 0.48996307049 0.41841209701 
0.40134596522 0.24356206059 0.58002596685 0.50996882515 0.42646885696 0.38028862021 0.29439474379 0.1837850814 0.071745071971 
0.27188141656 0.41667028038 0.67880448686 0.95724999508 0.81791702577 0.66324824948 1.5098416926 1.2921895558 1.2483788813 
1.2030113475 1.1597673033 1.0857667884 1.0661942516 1.0689757876 1.0259942798 0.99134523553 0.91834794331 0.88301122382 
0.85833806144 0.76279640226 0.7614398124 0.75052518598 0.74671080872 0.69500692164 0.70045060359 0.71395305998 0.69199184885 
0.7581251794 0.73240274099 0.75406305409 0.70435224542 0.65371921586 0.6128842418 0.62459613271 0.60317127434 0.55547015747 
0.52217614205 0.50017955615 0.45066355261 0.4074710557 0.43398721254 0.39136576799 0.3738282112 0.3738282112 0.34973260002 
0.3251219097 0.30308975391 0.32397121211 0.29308240926 0.26184662543 0.28453889087 0.2529928107 0.23320046864 0.20267194158 
0.22721438414 0.19673425715 0.1791831554 0.15233916554 0.14802081087 0.14237506947 0.12937918787 0.1148576396 0.15696529671 
0.14986047926 0.1348402392 0.11681776152 0.11327881802 0.15539762672 0.1380912482 0.12149514218 0.012421721322 0.013887995931 
0.11687383736 0.093622214549 0.033695107346 0.013887995931 0.090659887201 0.2310906672 0.2310906672 0.29660235513 0.1885223804 
1.240428021 1.240428021 1.2457946016 1.2457946016 1.2515807041 1.0276500429 1.0291703593 1.0065993417 0.97881514213 
0.59399839038 0.59399839038 0.57120566856 0.5568342591 0.40066411265 0.11997846105 0.1571242281 0.1571242281 0.1571242281 
0.24595637662 0.51774172833 0.5122428949 0.49494572275 0.59722533909 0.59722533909 0.6085436169 0.60955399431 0.60955399431 
0.60955399431 0.60955399431 0.60395416075 0.58680026036 0.57060455663 0.46267600647 0.51587250866 0.51587250866 0.49474078705 
0.48233335635 0.48833136657 0.47759652136 0.40541970238 0.42751500525 0.42539808492 0.39981153603 0.42237358646 0.42237358646 
0.37376744243 0.37574518576 0.37082786718 0.28103896024 0.28903821366 0.29758883864 0.30609343321 0.22388201359 0.23479500286 
0.2465275223 0.2944565519 0.25188799641 0.26449259602 0.27818921889 0.29311885656 0.25277693363 0.26879813112 0.28653331148 
0.30625039706 0.27569222193 0.29756495448 0.32246953858 0.35100158098 0.32809689318 0.36116516657 0.40069399889 0.44834080921 
0.47700677008 0.54281082733 0.62635927581 0.73197139458 1.0542514361 1.8653012241 1.4174008548 1.354671808 1.3669659297 
0.86759283839 1.0935567319 1.3160633083 1.3669659297 1.3377821891 1.3267823514 1.0441798344 0.3042005474 0.95425205945 
0.96021150995 0.95062798064 0.94395947638 0.94026818358 0.52275416368 1.764710243 1.736390315 0.5204966701 0.39413399332 
0.39607983698 1.1441382316 2.0094629287 1.9892591981 1.9234863737 1.8491813573 1.7985775353 1.7487569523 1.6772273996 
1.6619900224 1.5714434129 1.5380950333 1.2017958887 1.0917188939 1.1149767009 1.0788757207 1.0682495419 0.88368342768 
0.85529940814 0.59320585895 0.46415550071 0.38725547546 0.39064741682 0.41849393846 0.40195388706 0.11082670761 0.098525590846 