# vtk DataFile Version 5.1
vtk output
ASCII
DATASET POLYDATA
POINTS 7662 double
5.4000002146 34.830001384 123 5.5350002199 31.995001271 125 5.5350002199 34.965001389 123 
5.6700002253 31.185001239 120.5 5.6700002253 31.320001245 120.5 5.6700002253 31.45500125 120.5 
5.6700002253 31.590001255 119.5 5.6700002253 31.590001255 120.5 5.6700002253 31.590001255 125 
5.6700002253 31.725001261 120 5.6700002253 31.725001261 120.5 5.6700002253 31.725001261 125.5 
5.6700002253 31.860001266 120.5 5.6700002253 31.860001266 125.5 5.6700002253 31.860001266 126 
5.6700002253 31.995001271 120.5 5.6700002253 32.130001277 120.5 5.6700002253 32.265001282 120.5 
5.6700002253 32.400001287 120.5 5.6700002253 32.535001293 120.5 5.6700002253 32.670001298 120.5 
5.6700002253 32.805001304 120.5 5.6700002253 32.940001309 120.5 5.6700002253 33.075001314 120 
5.6700002253 33.21000132 119.5 5.6700002253 33.345001325 119.5 5.6700002253 33.48000133 119.5 
5.6700002253 33.615001336 119.5 5.6700002253 33.750001341 119.5 5.6700002253 33.885001346 119.5 
5.6700002253 34.020001352 119.5 5.6700002253 34.155001357 119.5 5.6700002253 34.290001363 119.5 
5.6700002253 34.425001368 119.5 5.6700002253 34.560001373 119.5 5.6700002253 34.695001379 119 
5.6700002253 34.830001384 118.5 5.6700002253 35.100001395 122.5 5.6700002253 35.2350014 122 
5.6700002253 35.370001405 121.5 5.6700002253 35.505001411 121 5.6700002253 35.640001416 121 
5.6700002253 35.775001422 120.5 5.8050002307 30.510001212 121 5.8050002307 30.645001218 121 
5.8050002307 30.780001223 121 5.8050002307 30.915001228 121 5.8050002307 31.050001234 121 
5.8050002307 31.320001245 118.5 5.8050002307 31.45500125 119 5.8050002307 31.995001271 126.5 
5.8050002307 31.995001271 127 5.8050002307 32.130001277 127.5 5.8050002307 32.535001293 114.5 
5.8050002307 32.670001298 115 5.8050002307 32.805001304 115.5 5.8050002307 32.940001309 116 
5.8050002307 33.075001314 116 5.8050002307 33.075001314 128 5.8050002307 33.21000132 116 
5.8050002307 33.21000132 128 5.8050002307 33.345001325 116.5 5.8050002307 33.345001325 128 
5.8050002307 33.48000133 117 5.8050002307 33.48000133 128 5.8050002307 33.615001336 117 
5.8050002307 33.615001336 128 5.8050002307 33.750001341 117 5.8050002307 33.750001341 128 
5.8050002307 33.885001346 117 5.8050002307 33.885001346 128 5.8050002307 34.020001352 117 
5.8050002307 34.020001352 128 5.8050002307 34.155001357 117 5.8050002307 34.155001357 128 
5.8050002307 34.290001363 117 5.8050002307 34.290001363 128 5.8050002307 34.425001368 117 
5.8050002307 34.425001368 128 5.8050002307 34.560001373 117 5.8050002307 34.560001373 128 
5.8050002307 34.695001379 117.5 5.8050002307 34.695001379 128 5.8050002307 34.830001384 118 
5.8050002307 34.965001389 118 5.8050002307 34.965001389 118.5 5.8050002307 35.100001395 118.5 
5.8050002307 35.2350014 118.5 5.8050002307 35.370001405 118.5 5.8050002307 35.505001411 118.5 
5.8050002307 35.640001416 118.5 5.8050002307 35.775001422 118.5 5.8050002307 35.910001427 118.5 
5.8050002307 35.910001427 120.5 5.8050002307 36.045001432 118.5 5.8050002307 36.045001432 119.5 
5.8050002307 36.045001432 120 5.8050002307 36.180001438 118.5 5.8050002307 36.180001438 119 
5.940000236 32.265001282 128 5.940000236 32.400001287 128 5.940000236 32.535001293 128 
5.940000236 32.670001298 128 5.940000236 32.805001304 128 5.940000236 32.940001309 128 
5.940000236 34.830001384 128 5.940000236 34.965001389 128 5.940000236 36.315001443 118.5 
5.940000236 36.450001448 118.5 5.940000236 36.585001454 118.5 5.940000236 36.720001459 118 
6.0750002414 35.100001395 127.5 6.0750002414 36.855001464 118 6.0750002414 36.99000147 118 
6.2100002468 35.2350014 127.5 6.2100002468 35.370001405 127.5 6.2100002468 35.505001411 127.5 
6.2100002468 35.640001416 127.5 6.2100002468 35.775001422 127.5 6.2100002468 35.910001427 127.5 
6.2100002468 36.045001432 127.5 6.2100002468 36.180001438 127.5 6.2100002468 36.315001443 127.5 
6.2100002468 36.450001448 127.5 6.2100002468 36.585001454 127.5 6.2100002468 36.720001459 127.5 
6.2100002468 36.855001464 127.5 6.2100002468 36.99000147 127.5 6.2100002468 37.125001475 118 
6.2100002468 37.260001481 118.5 6.2100002468 37.395001486 118.5 6.2100002468 37.530001491 118.5 
6.2100002468 37.665001497 119 6.2100002468 37.800001502 119 6.2100002468 37.800001502 126 
6.2100002468 37.935001507 124.5 6.2100002468 37.935001507 125 6.2100002468 38.070001513 122.5 
6.2100002468 38.070001513 123 6.2100002468 38.070001513 123.5 6.2100002468 38.070001513 124 
6.2100002468 38.070001513 124.5 6.3450002521 36.99000147 108 6.3450002521 37.125001475 127 
6.3450002521 37.665001497 126 6.3450002521 37.800001502 125 6.3450002521 37.800001502 125.5 
6.3450002521 37.800001502 126.5 6.3450002521 37.935001507 119 6.3450002521 38.070001513 119.5 
6.3450002521 38.070001513 120 6.3450002521 38.070001513 120.5 6.3450002521 38.070001513 121 
6.3450002521 38.070001513 121.5 6.3450002521 38.070001513 122 6.4800002575 36.315001443 109 
6.4800002575 36.450001448 108.5 6.4800002575 36.585001454 108.5 6.4800002575 36.720001459 108.5 
6.4800002575 36.855001464 108.5 6.4800002575 37.125001475 108 6.4800002575 37.260001481 108 
6.4800002575 37.260001481 127 6.4800002575 37.395001486 108 6.4800002575 37.395001486 127 
6.4800002575 37.530001491 108 6.4800002575 37.530001491 127 6.4800002575 37.665001497 108 
6.4800002575 37.665001497 126.5 6.4800002575 37.665001497 127 6.4800002575 37.800001502 108 
6.4800002575 37.800001502 127.5 6.4800002575 38.205001518 117 6.4800002575 38.205001518 117.5 
6.4800002575 38.205001518 119 6.6150002629 35.2350014 137.5 6.6150002629 35.370001405 137.5 
6.6150002629 35.505001411 137.5 6.6150002629 35.640001416 137.5 6.6150002629 35.775001422 137.5 
6.6150002629 35.910001427 137.5 6.6150002629 37.800001502 128 6.6150002629 37.800001502 128.5 
6.6150002629 37.935001507 108 6.6150002629 38.205001518 118 6.6150002629 38.205001518 118.5 
6.6150002629 38.340001523 115.5 6.6150002629 38.340001523 116 6.6150002629 38.340001523 116.5 
6.6150002629 38.340001523 118 6.6150002629 38.475001529 118 6.6150002629 38.610001534 118 
6.6150002629 38.74500154 118 6.6150002629 38.880001545 118 6.6150002629 39.01500155 118 
6.6150002629 39.150001556 118 6.6150002629 39.285001561 118 6.6150002629 39.420001566 118 
6.6150002629 39.555001572 118 6.6150002629 39.690001577 118 6.6150002629 39.825001583 118 
6.6150002629 39.960001588 118 6.6150002629 40.095001593 118 6.6150002629 40.230001599 118 
6.7500002682 31.995001271 169 6.7500002682 32.130001277 169 6.7500002682 32.265001282 168.5 
6.7500002682 32.400001287 168.5 6.7500002682 32.535001293 168.5 6.7500002682 32.670001298 168.5 
6.7500002682 32.805001304 168.5 6.7500002682 32.940001309 168.5 6.7500002682 33.075001314 168.5 
6.7500002682 33.21000132 168.5 6.7500002682 33.345001325 168.5 6.7500002682 33.48000133 168.5 
6.7500002682 33.615001336 168.5 6.7500002682 33.750001341 168.5 6.7500002682 33.885001346 168.5 
6.7500002682 34.020001352 168.5 6.7500002682 34.155001357 168.5 6.7500002682 34.290001363 168.5 
6.7500002682 34.425001368 168.5 6.7500002682 34.560001373 168.5 6.7500002682 34.695001379 168.5 
6.7500002682 34.830001384 168.5 6.7500002682 34.965001389 168.5 6.7500002682 35.100001395 168.5 
6.7500002682 35.2350014 168.5 6.7500002682 35.370001405 168.5 6.7500002682 35.505001411 168.5 
6.7500002682 36.045001432 137.5 6.7500002682 36.855001464 142 6.7500002682 37.935001507 129 
6.7500002682 38.070001513 108 6.7500002682 38.340001523 114.5 6.7500002682 38.340001523 115 
6.7500002682 38.475001529 112 6.7500002682 38.475001529 112.5 6.7500002682 38.475001529 113 
6.7500002682 38.475001529 113.5 6.7500002682 38.475001529 114 6.7500002682 40.365001604 117.5 
6.7500002682 40.500001609 117 6.7500002682 40.635001615 117 6.7500002682 40.77000162 117 
6.7500002682 40.905001625 117 6.7500002682 41.040001631 117 6.7500002682 41.175001636 117 
6.7500002682 41.310001642 117 6.7500002682 41.445001647 123.5 6.7500002682 41.445001647 124 
6.7500002682 41.445001647 124.5 6.7500002682 41.445001647 125 6.7500002682 41.445001647 125.5 
6.8850002736 35.640001416 168 6.8850002736 35.775001422 168 6.8850002736 36.180001438 137.5 
6.8850002736 36.315001443 137.5 6.8850002736 36.450001448 137.5 6.8850002736 36.585001454 137.5 
6.8850002736 36.720001459 137.5 6.8850002736 36.855001464 137.5 6.8850002736 36.99000147 137.5 
6.8850002736 36.99000147 142 6.8850002736 37.125001475 137.5 6.8850002736 37.260001481 137.5 
6.8850002736 37.395001486 137.5 6.8850002736 37.530001491 137.5 6.8850002736 37.665001497 137.5 
6.8850002736 37.800001502 137.5 6.8850002736 37.935001507 129.5 6.8850002736 38.205001518 108 
6.8850002736 38.340001523 101 6.8850002736 38.340001523 102 6.8850002736 38.340001523 102.5 
6.8850002736 38.340001523 103 6.8850002736 38.340001523 103.5 6.8850002736 38.340001523 104 
6.8850002736 38.340001523 104.5 6.8850002736 38.340001523 105 6.8850002736 38.340001523 106.5 
6.8850002736 38.340001523 107 6.8850002736 38.340001523 107.5 6.8850002736 38.340001523 108 
6.8850002736 38.340001523 108.5 6.8850002736 38.340001523 109 6.8850002736 38.340001523 109.5 
6.8850002736 38.340001523 110 6.8850002736 38.475001529 110.5 6.8850002736 38.475001529 111 
6.8850002736 38.475001529 111.5 6.8850002736 40.77000162 127.5 6.8850002736 40.905001625 127.5 
6.8850002736 41.040001631 127.5 6.8850002736 41.445001647 117 6.8850002736 41.580001652 117 
6.8850002736 41.580001652 124.5 6.8850002736 41.580001652 125 6.8850002736 41.580001652 125.5 
6.8850002736 41.580001652 126 7.0200002789 35.910001427 167.5 7.0200002789 36.045001432 167.5 
7.0200002789 36.180001438 167.5 7.0200002789 36.315001443 167.5 7.0200002789 36.450001448 167.5 
7.0200002789 36.585001454 150.5 7.0200002789 36.585001454 167 7.0200002789 36.720001459 150.5 
7.0200002789 36.720001459 166.5 7.0200002789 36.855001464 150.5 7.0200002789 36.855001464 166 
[...]
CELL_DATA 7661
SCALARS angle%0A[rad] double
LOOKUP_TABLE default
0 0.81087703347 0.87264179078 0.9515821148 0.81087703347 0.15164425606 0.21130830576 0.39489654629 0.78488858253 
0.7261363044 0.67424384576 0.75527679617 0.68909389673 0.63206289532 0.24955335369 0.32215608782 0.45598338288 0.64394902541 
0.63029791404 0.6501515881 0.078585807004 0.18700448323 0.62908739222 0.57753888359 0.66704078349 0.66704078349 0.64013176667 
0.63461733578 0.55548205323 0.16572815199 0.32934959479 0.38978476505 0.63587175134 0.39972342347 0.52759023848 0.50223592994 
0.50223592994 0.50223592994 0.50223592994 0.63935241094 0.47745332958 0.45573481557 0.4357840853 0.55148065135 0.45514443405 
0.43469638938 0.41590338049 0.30409960895 0.29813786029 0.29813786029 0.29813786029 0.27988947183 0.27988947183 0.27988947183 
0.27988947183 0.2508176077 0.31305047254 0.26777989929 0.25665251896 0.13644914549 0.32350629591 0.39667557432 0.26212033642 
0.37858144766 0.11297293153 0.90616496041 0.95524420257 0.98842890127 1.0533995239 1.0791483853 1.070987986 1.064460169 
1.1172805141 1.1002253487 1.1110480022 1.1057056963 1.1052256909 1.101740595 1.0989460004 1.0969678422 1.0409823073 
1.0496180645 1.0512810674 0.99794469178 0.94598916631 0.95334050048 0.73324185035 0.75867950872 0.68913167543 0.62931688554 
0.65057604581 0.25750054854 0.18210802582 0.24932601711 0.30563040041 0.38130229017 0.48363672857 0.62415653134 0.40431769638 
0.58436362005 0.12204335061 0.28659886 0.261495094 0.25544329761 0.22048263992 0.1797905033 0.1318676692 0.1122732146 
0.045315241894 0.080515547805 0.25386610056 0.54669087478 0.54668810142 0.63190462379 0.10745002845 0.15551503229 0.1156502035 
0.10795487937 0.10795487937 0.10795487937 0.32445132197 0.30363296151 0.16257165345 0.15461494372 0.11504120686 0.13770659822 
0.20344840165 0.22004329814 0.3296393394 0.22173469084 0.22707326538 0.23414936836 0.24698006958 0.22114651361 0.22114651361 
0.19703690095 0.23704348583 0.24819202222 0.22194718136 0.22194718136 0.22969757848 0.23795591026 0.18318731351 0.19750725525 
0.26976531916 0.30245152644 0.33670837421 0.34949539525 0.5209080972 0.54418532357 0.31170322332 0.10148035128 0.10185447435 
0.10600993825 0.11301560954 0.10148035128 0.10148035128 0.10148035128 0.10148035128 0.10270695726 0.10422144646 0.10078264114 
0.10124917032 0.10620366954 0.10620366954 0.1445591352 0.16476127268 0.31307266837 0.33296442187 0.56003974594 0.45109240345 
0.38465640718 0.36234836365 0.34393397669 0.24307694373 0.225098116 0.23072045384 0.23845590133 0.17250004035 0.18278604726 
0.18278604726 0.21523944134 0.23098787722 0.26449663298 0.26233125792 0.17581456861 0.17581456861 0.10913530889 0.1612823245 
0.18116508683 0.15693597297 0.28086639102 0.3073972258 0.32449940446 0.41933427924 0.55505878015 0.32086273114 0.39536444109 
0.41154420361 0.1894519282 0.12186049568 0.14365160601 0.17512843364 0.076178008528 0.10411055023 0.10352070929 0.19784044527 
0.22329627257 0.24116491913 0.051689748791 0.1176529954 0.095373469714 0.10659474042 0.23941856316 0.17941877497 0.17090518901 
0.35239628758 0.27042885778 0.045639144636 0.24249351075 0.88073340348 0.16897910392 0.18650785768 0.17748133338 0.1056686238 
0.16362606941 0.20645206578 0.31341394683 0.20837873778 0.42857612221 0.65206922436 0.59916014031 0.59742043666 0.54049143913 
0.46708423164 0.40594427091 0.41474248566 0.2957863219 0.17230719421 0.1137258815 0.13681347087 0.11086736701 0.097044096901 
0.097044096901 0.076219594234 0.076219594234 0.10141494786 0.087684801419 0.065545761819 0.071963106577 0.060318182082 0.12428860822 
0.14619463822 0.19003478073 0.31876237265 0.27625701037 0.30299918013 0.28210413452 0.24267116418 0.20918903244 0.21255826658 
0.11399172115 0.19120703483 0.13118006446 0.11683897081 0.19021355505 0.16528887252 0.1253185272 0.19408855418 0.16913163262 
0.11033016177 0.060021807755 0.08495637893 0.060195649093 0.060195649093 2.1073424255e-08 0.026866243494 0.037951058558 0.075888937305 
0.11339852768 0.11339852768 0.059710248846 0.096250607763 0.074217494401 0.092346826147 0.13918873733 0.15074736538 0.10920773127 
0.074594457124 0.024965232201 0.037084866745 0.21170444861 1.6856008817 1.6596021 1.6337845036 1.614754894 1.5843289116 
1.374852328 1.34088058 1.2544948202 1.1032430001 1.0680445097 1.0340508194 0.9543809084 0.80165166135 0.76384689979 
0.72732976354 0.45661120236 0.41784903169 0.38008261764 0.34311238274 0.1080212963 0.42295648961 0.44510329919 0.49697277477 
0.66214829666 0.68273603809 0.70550209585 0.73051102858 0.88164246764 0.90814536738 0.93731040565 1.0908185263 1.1294762109 
1.1707934775 1.2148875191 1.2544665925 1.3017907691 1.3480732047 1.3975902708 1.3514008088 1.4125456562 1.4757659091 
1.3853698817 1.2944768758 0.99702784769 1.2604183659 0.87882891814 0.19716925493 0.21500001779 0.36862024516 0.17183262763 
0.15654312447 0.16340591384 0.14015102677 0.12650261773 0.13087497114 0.11259241608 0.085174925961 0.085174925961 0.080823550303 
0.053947605782 0.053947605782 1.0964364477 1.2603945669 1.1978436662 1.1432266931 1.4657847555 1.4263835101 1.3996248151 
1.9031852417 1.9622311133 2.0393685001 2.1323966778 1.1147372046 1.0794291858 1.0341409597 0.9343995532 0.90111178171 
0.86949021643 0.73428588171 0.7059538177 0.67938711488 0.65445995341 0.5122694297 1.0223517142 1.023399331 0.90744390083 
0.52500304713 0.25804872221 0.27206767235 0.28871470995 0.19532264732 0.21020227878 0.22817565512 0.25492796129 0.28687022856 
0.21171394883 0.25165996292 0.27769896211 0.1288696055 0.53892418099 0.52181129088 0.51889623698 0.51889623698 0.51889623698 
0.51889623698 0.51889623698 0.51889623698 0.60826762625 1.1180522001 2.2977968672 2.0261077185 1.4548367916 0.9340005892 
0.52062436803 0.57511063271 0.40663414074 0.35359525279 0.21451563636 0.15534788704 0.41302817891 1.3044945994 0.20659999511 
0.18616405298 0.16884486249 0.16204298229 0.1451648898 0.20893066361 0.50280129261 0.48759626944 0.47321582555 1.826552156 
0.36723912997 1.7564067227 1.4676202163 1.1478390599 0.51958831612 0.53482929906 0.31491169633 0.57464198525 0.49301174336 
0.4383279348 0.47051161992 0.50458008056 0.55693664457 0.6104466546 0.66511901906 0.83632920302 0.87739980535 0.92356477503 
0.76845381076 0.47119377301 0.54736563882 0.62920938761 0.49341623736 0.34316874315 0.25723918036 0.21146365257 0.060191309939 
0.060191309939 0.026915082233 0.038054367628 0.026915082233 0.026915082233 0.026915082233 0.076067713233 0.076067713233 0.085224345466 
0.080911604691 0.083959006493 0.089887099383 0.093665863638 0.089899354359 0.097228218662 0.10867053247 0.02699344294 0.02699344294 
0.038165226606 1.7870554497 2.0007974055 2.0037756346 2.0127768567 2.0137219951 2.0293919545 2.0515413455 2.0529296955 
2.0883842785 2.1339973743 2.1976719053 1.7412007573 1.8462423895 1.995367054 2.1914187113 0.2832379079 0.14006635212 
0.30779225882 1.0214554434 0.99397084166 0.95045024993 0.92396314668 0.89763482474 0.8532526612 0.82467532493 0.69576389126 
0.62222956121 0.5727522371 0.52319152522 0.49494217341 0.42476079241 1.278738125 1.4340019732 1.4033806982 1.3775046345 
1.3536181741 1.3256898993 1.2973420701 1.2676034031 1.2369241151 1.206885658 1.1775405873 1.0969450027 1.0668032288 
1.0378311687 1.0101617739 0.93896562734 0.9122676024 0.88851765096 0.76267083896 0.76451501414 0.74017563997 0.61788367516 
0.5970522337 0.57742357724 0.038165226606 0.038165226606 0.39685198998 0.47463210176 0.038165226606 0.038165226606 0.038172174832 
0.060348916429 0.063044068097 0 0 0 0 0 0 0 
0.2907052874 2.0859870025 2.0869425122 2.0910934897 2.0989995434 2.1062348145 2.120874505 2.1416112684 2.1694357333 
2.1788991878 2.2204568843 2.2722614729 2.3059563789 2.3804315088 2.0709304585 2.2650009047 0.2978883664 0.27622235439 
0.13445148735 0.17667847628 0.2198918836 0.3891522674 0.42700932547 0.45974018919 0.6545396328 0.69024892185 0.54281082733 
0.58380552708 0.75332402865 0.37968055434 0.42381246241 0.17132973266 0.16578065887 0.19638211503 0.18254598095 0.15965354559 
0.22679546773 0.41711372068 0.98343729563 0.77829851928 0.95960086959 0.98499305199 0.80170746106 0.30835529981 0.19529055201 
0.028923300506 0.065386363236 0.11007540888 0.14142280983 0.14200170861 0.13600886299 0.10091060091 0.026750893396 0.10648276426 
0.44724687952 0.64444575894 1.3281482747 1.311796886 1.3308972237 0.070426503902 0.17816687514 0.45726430414 0.54794024669 
0.47468107172 0.40576322998 0.18750777649 0.70289444665 1.6605143569 0.42879612326 0.9015933337 1.0716988405 1.0083837777 
0.89353458879 0.78206867517 0.6813040652 0.49231800209 0.37309055306 0.094198611347 1.1130160058 0.25440716419 0.58038182828 
0.54316377457 0.54316377457 0.1785234385 0.46229693675 0.38325220306 0.35002963695 0.34394532877 0.38570776404 0.028349727907 
0.080823550303 0.080823550303 0.15652408488 0.085174925961 0.26904737072 0.66519968984 1.5169270532 1.4900898499 1.2182828903 
1.4155597511 1.3722028565 1.3471968225 1.3240931435 1.2846704896 1.20322834 1.1861150276 1.1427525181 1.0612612092 
1.0156863185 0.90794110127 0.94691890592 0.91958417569 0.8933425323 1.6342620454 1.7894493032 0.57776272566 0.45436325145 
0.29556957076 0.45212595336 0.43628708869 1.450915529 0.94838372062 0.43091283801 0.45568617532 0.45331828858 0.7986517369 
0.87911105907 0.7885037933 0.71347684783 0.65303221346 1.6908523428 1.690836999 1.7949997828 1.7328822407 1.7465710828 
1.8208713474 1.83480964 1.8376152634 1.8426285443 1.7422866378 1.7716972702 1.7848407786 1.8000108501 1.8277031496 
1.7307450163 1.7817154086 1.8191692471 1.7375499191 1.6774517239 1.4464068258 1.2684107843 0.99308110655 0.84754873678 
0.65905882582 0.54285876791 1.0929491738 0.99920792991 0.93740076286 0.90120382501 0.85799974531 0.76596764653 0.63705653882 
0.5905415942 0.50636668507 0.4568137884 0.42936500679 0.4026665355 0.34623260934 0.31845068446 0.20782028843 0.16348694682 
0.10890003129 0.10107612679 0.0439354168 0.1909177038 0.23163559891 0.12143279567 0.13753737546 0.15481974259 0.17249080513 
0.2675595692 0.28578874459 0.30311017393 0.18657043849 0.095554916179 0.18312402972 0.37212852008 0.36206391767 0.35141045267 
0.34011767049 0.34011767049 0.61601285641 0.60154562596 0.82657605698 0.79554661353 0.76498120792 0.68449800287 0.67746193639 
0.66977694877 0.66135008222 0.65207000075 0.64180229468 0.6303833007 0.59335179447 0.55578868551 0.51734311072 0.40569584375 
0.36357667985 0.31907922313 0.27133537971 0.14384116147 0.094119310186 0.063052143367 0.10135440104 0.27898474734 0.39693338242 
0.54884924011 0.74336137087 0.37124761996 1.5868235968 1.8112455664 1.8232940917 1.8286745457 1.8528182123 1.4944520014 
1.5031694818 1.5217080019 1.5110765552 1.5556741566 1.6221978787 1.716325255 1.7968470775 0.73209977727 1.5049756605 
1.6558634681 1.6376886849 1.6205506458 1.7845039129 1.7852281206 1.7781804962 1.9541878081 1.958562681 1.9662898733 
1.9793544363 1.689656272 1.6983487499 1.7143572094 1.6529865501 1.6848966658 1.1736548328 1.2271529087 1.1518598993 
0.25732371497 0.24497866313 0.23374318087 0.93416901261 0.35202308989 0.40157583612 0.66097515577 0.72709111655 0.86718575703 
0.84592684677 0.82652303655 0.72293017237 0.8796998209 2.0584467435 0.86957885161 0.77881879607 0.7576934466 1.8423568358 
1.4861135431 0.57590450924 0.74782080798 0.84328461387 0.76502757231 0.68200251534 0.78738660528 0.68576354373 0.90642293846 
0.76809090208 0.43819920918 0.41679838364 0.26251814088 0.32186245791 0.27622326227 0.21426617217 0.11980359199 0.096730514771 
0.073132885871 0.092331061775 0.16240670141 0.22659322461 0.28799528334 0.35281820061 0.501602255 0.54066982312 0.61122503364 
0.66792336696 0.72663840319 0.78741433932 0.86009369167 0.92443865041 1.0069777809 1.08000348 0.94231678051 0.92044054667 
0.8740639993 0.85137295587 0.092969247957 0.094198611347 1.2218237534 1.183677859 1.177359571 1.1736981899 1.1787232635 
1.2240868442 1.1953433707 1.1672365825 0.6591495936 1.1200079248 1.0695951637 1.0487726586 1.014215116 0.98075843245 
0.94691890592 0.91958417569 1.4506304042 1.3992238159 1.3722028565 1.3482730709 1.3301848967 1.2945572321 1.2513864316 
1.2094134931 0.59697528781 1.4224969725 0.95120215454 1.0669640458 1.0664899806 1.0494106787 1.0028017974 1.0379801064 
0.32959212793 1.393405331 1.2209650865 1.3706821652 1.4010711031 1.4330494633 1.466666295 1.5019594203 1.77619917 
1.8110673217 1.8498692079 1.8870635989 1.7792312479 1.4946501207 1.5383504115 0.23007197741 0.09457347469 0.093383961422 
0.26371184446 0.24658442581 0.02699344294 0.62124580255 1.2595218747 1.2684303038 1.2852250121 1.2584145674 1.4442237889 
0.94824794965 0.79173401225 0.74943494006 0.70609047969 0.66204367364 0.92906982819 0.85571816983 0.84098605593 0.81227744249 
0.69672288986 0.70472777987 0.67541957525 0.64566573546 0.66063882165 0.64013176667 0.62069497454 0.60226038436 1.2936613962 
0.17886028564 0.36665419431 0.14456648099 0.26904737072 0.2382227218 0.21146365257 0.51356838808 0.74341112143 0.57378343438 
1.1928995416 1.2319798566 1.1283518754 1.1100699026 1.9772686467 1.5054572956 1.6408714264 1.2833523962 1.0604540524 
0.99565542241 1.2273764852 0.93350846244 0.89412799396 0.82881012272 0.76148359554 0.74014567529 0.69233352938 0.622949578 
0.75751396828 0.6982103732 1.3806690602 1.32778213 1.272923843 1.1387189662 1.1895212675 1.1026565646 1.0018828679 
0.9142338973 0.80959475867 0.73400040159 0.65635192469 0.39059475364 1.0146102286 0.25291819061 0.3749676972 1.0774839531 
0.9467001176 0.29314891557 0.24988171488 1.4366075936 1.4101915911 1.1000948868 1.0334651136 0.91300186225 1.0660069758 
1.1354608906 1.0011981615 1.056978794 0.95803350143 0.88095080014 0.79850814501 0.71413696535 0.57223568752 0.34451665854 
0.15495311589 0.46395658433 1.5615420146 0.36020118026 1.4900020926 1.4590746804 1.4389087566 1.4208790391 1.4087208947 
1.4004757119 1.3614523196 1.3557064047 1.3621798011 1.4036655042 1.4300382371 1.4774571136 1.5491409597 0.71520363686 
0.68854965063 0.66351693707 0.29878841026 0.022723360842 0.079829985712 0.76454371254 0.54523039004 0.42096727493 0.16514867741 
0.26610419907 0.25398302827 1.1672365825 1.1397884608 0.24999301128 0.25440716419 0.44128662143 0.11203738304 0.21501228352 
0.053947605782 1.1042885975 1.4866927699 1.4435321674 1.4377241901 0.7425006726 1.4632133122 1.4366075936 1.3927817878 
0.2776496196 0.29544953288 0.17263609149 0.051693181644 0.1187838002 0.13653459957 0.46005896718 0.69262514228 0.71811705259 
0.7479092554 1.5587300593 1.5438421354 1.5035696348 0.83633453786 0.87348105187 1.5346299792 1.4957648385 1.4864479474 
1.4746084109 1.4446463106 1.4109040732 1.393405331 0.88896561321 0.77520917535 0.71353559651 1.5517379894 0.8727644064 
1.4452002963 1.3646139239 0.26543581693 1.2916362631 0.72156722912 0.59903540739 0.8727644064 1.2945572321 1.2945572321 
2.2505635078 1.1209002919 1.2234022948 1.1760545028 0.1892628868 0.17340723862 1.1442211402 0.26302665662 0.20300051041 
1.0020959323 1.5044888304 1.477164503 1.4236744324 0.52739433887 0.84644195902 1.6841158141 2.0205239294 0.83042053826 
1.9791807471 1.8031438407 1.5177215172 1.2838850869 1.1132827 0.060467131741 1.0832586719 0.11752744167 0.56752134976 
1.6377780165 1.613197307 0.68970912944 0.36124558557 0.42325253683 0.40136929748 0.49300065337 0.38651476062 0.20229619991 
0.79528503836 0.23234751386 0.045688824388 0.66452655921 0.62216420635 0.59171031602 0.9690286019 0.4567184584 0.61763314126 
0.8818242455 1.0793218104 0.95787554939 0.9305822764 0.9057486218 0.88369319215 0.29473421284 0.43628708869 0.51954176804 
0.57217394088 0.77829851928 0.99312350485 0.9440303435 0.91301254123 0.88545400557 0.73383733187 0.8938043075 0.86145775531 
0.77576850512 0.85093340995 0.95985145813 0.51954176804 0.25445101407 0.72324277946 0.5146182376 0.66299528002 1.398460209 
0.23178059822 1.2859594475 0.21870547635 0.22749210915 0.21847910852 0.21847910852 0.11575647106 0.065634833592 0.43597823493 
0.71483701813 0.67261522234 0.53277708145 0.54293960718 0.53446863987 0.83655796311 0.89864534087 0.85281880945 0.54719140098 
0.79730540566 0.69102542339 0.24300708146 0.71159393437 0.06671738323 0.84431661966 0.7620645994 1.4901161194e-08 0.16514867741 
0.73224011051 0.72264969516 0.50821278591 1.4901161194e-08 0.47338023152 0.72163412943 0.613226641 0.8147904128 0.39159239089 
0.35332460788 0.70858110085 0.69025723911 0.14712703675 0.73666625966 0.14172835291 1.3826087258 1.2809078451 0.28005771966 
0.34500490097 0.4125720232 0.52274903372 0.65062867591 0.12737579921 0.57560706198 0.68345017667 0.54710561446 0.78031100753 
0.74807636498 0.54276824726 0.5414576367 0.40936932478 0.41400244994 0.40153325711 0.31283724984 0.70858110085 0.50924587395 
0.38647399665 0.70858110085 1.2692318608 0.15568730629 0.20179134507 0.69871226122 0.72070002199 0.39965675629 0.7121037818 
0.69524294626 0.66990945772 0.66099886644 0.54248150736 0.66063882165 0.64584333513 1.7631106101 1.6010440715 1.3996391768 
1.2701461535 1.3836460458 1.2258162427 1.2728209994 1.0236978673 0.97942813577 0.87395894187 0.89996104008 0.93529517701 
0.96680423382 0.86418366694 0.70297745118 0.87641884674 0.67942504141 0.4840487797 1.587430617 1.465544531 1.452333966 
0.16213930369 0.38702989458 0.42152689277 0.40030301489 0.35467706411 1.227512716 0.61096129586 1.1851216857 1.211920761 
1.1573595531 1.1236107905 0.17566045945 0.17495210748 0.14974897798 0.15217202363 0.2130967206 0.81254857134 0.77052063889 
0.56997491177 0.64256584812 0.64187548381 0.39990429647 0.31805879169 0.44736801319 0.35169121109 0.66386053155 0.64563208814 
0.62201069891 0.5976093439 0.57242779278 0.55599544736 0.57949411625 0.76795177221 0.54714739286 0.52218902139 0.48132851078 
0.46656095527 0.71570287735 0.48469702048 0.48469702048 0.469305149 0.65596450699 0.6889274047 0.75611126653 0.54869636937 
0.6698101124 0.78201594916 0.76493733668 1.2877762375 1.041674789 1.2364542437 1.2594192918 1.1738695513 1.196782329 
1.069729175 0.86337981556 1.0682656506 1.2246986301 1.3426280782 1.3122019963 1.281501967 1.2506936668 1.176265903 
1.1428184173 1.0902197863 1.0252944919 0.98759811678 0.91425439798 0.86532063273 0.82014926408 0.68909389673 0.6501515881 
0.93935976266 0.8143188336 0.84272470223 0.77957282736 0.71239718263 0.68179461588 0.66602473932 0.65675921679 0.64563465268 
0.62962389353 0.64858444799 0.57737143816 0.3811913493 0.34205096306 0.37648394148 0.33684482465 0.43697140637 0.47561092993 
0.43200073291 0.3887650946 0.34406810223 0.38881282177 0.45453180219 0.40009765237 0.33745420307 0.27426339635 0.24526509455 
0.33205143264 0.35481121832 0.41340530095 0.52768915185 0.70818666566 0.4570841408 0.29374378503 0.30163425273 0.29400115729 
0.50895297499 0.41368987946 0.30784170043 0.28110473682 0.25488554462 0.26184397689 0.15323659362 0.20305876641 0.1598411839 
0.23443641269 0.49950503734 0.5194444081 0.53825796437 0.52576558763 0.52576558763 0.52576558763 0.55404653155 0.63913443712 
0.66873316567 0.70485059054 0.70902770476 0.63909980861 0.6805679025 0.72467400807 0.8838325785 0.92998552042 0.74963959159 
0.76939741692 0.78961401527 0.56762672876 0.32557911756 0.16150875783 0.066731854605 0.078683661649 0.26626146703 0.80963360226 
0.12145809788 0.069059725115 0.082970308709 0.19773863103 0.28054600348 0.16525854825 0.14322700425 0.25199615983 0.31654813947 
0.37300370356 0.39225446758 0.46500207481 0.56929269287 0.69730299667 0.76417583195 0.91962237215 0.94936782337 0.85320744943 
0.89008373536 0.76933019396 0.65200904277 0.62634525623 0.51405938347 0.43086327715 0.39010012031 0.22209091051 0.21678629086 
0.187614631 0.14603314966 0.057683344719 0.092106535896 0.056744111196 0.091389913241 0.049041555229 0.017732544944 0.09108530705 
0.04688666613 0.025395169132 0.018352020392 0.12287113852 0.087773588269 0.087773588269 0.091389913241 0.025762842519 0.035964952961 