# vtk DataFile Version 5.1
vtk output
ASCII
DATASET POLYDATA
POINTS 3212 double
6.0750002414 36.855001464 118 6.2100002468 36.99000147 118 6.2100002468 37.125001475 118.5 
6.2100002468 37.260001481 118.5 6.2100002468 37.395001486 118.5 6.2100002468 37.530001491 118.5 
6.2100002468 37.665001497 119 6.2100002468 37.800001502 126 6.2100002468 37.935001507 124.5 
6.2100002468 38.070001513 123.5 6.2100002468 38.070001513 124 6.3450002521 37.800001502 119 
6.3450002521 37.800001502 125 6.3450002521 37.800001502 125.5 6.3450002521 37.800001502 126 
6.3450002521 37.800001502 126.5 6.3450002521 37.800001502 127 6.3450002521 37.935001507 119 
6.3450002521 38.070001513 119.5 6.3450002521 38.070001513 120 6.3450002521 38.070001513 120.5 
6.3450002521 38.070001513 121 6.3450002521 38.070001513 121.5 6.3450002521 38.070001513 122 
6.3450002521 38.070001513 122.5 6.3450002521 38.070001513 123 6.3450002521 38.205001518 120 
6.4800002575 37.665001497 126.5 6.4800002575 37.665001497 127 6.4800002575 37.800001502 127.5 
6.4800002575 38.205001518 117 6.4800002575 38.205001518 117.5 6.4800002575 38.205001518 119 
6.4800002575 38.205001518 119.5 6.6150002629 35.505001411 138 6.6150002629 35.640001416 138 
6.6150002629 35.775001422 138 6.6150002629 37.800001502 127.5 6.6150002629 37.800001502 128 
6.6150002629 37.800001502 128.5 6.6150002629 37.935001507 128 6.6150002629 38.070001513 128 
6.6150002629 38.205001518 118 6.6150002629 38.205001518 118.5 6.6150002629 38.205001518 128 
6.6150002629 38.340001523 115.5 6.6150002629 38.340001523 116 6.6150002629 38.340001523 116.5 
6.6150002629 38.340001523 117 6.6150002629 38.340001523 117.5 6.6150002629 38.340001523 118 
6.6150002629 38.340001523 118.5 6.6150002629 38.475001529 118 6.6150002629 38.610001534 118 
6.6150002629 38.74500154 118 6.6150002629 38.880001545 118 6.6150002629 39.01500155 118 
6.6150002629 39.150001556 118 6.6150002629 39.285001561 118 6.6150002629 39.420001566 118 
6.6150002629 39.555001572 118 6.6150002629 39.690001577 118 6.6150002629 39.825001583 118 
6.6150002629 39.960001588 118 6.7500002682 35.910001427 137.5 6.7500002682 37.935001507 129 
6.7500002682 37.935001507 129.5 6.7500002682 38.340001523 114.5 6.7500002682 38.340001523 115 
6.7500002682 38.340001523 128 6.7500002682 38.475001529 112.5 6.7500002682 38.475001529 113 
6.7500002682 38.475001529 113.5 6.7500002682 38.475001529 114 6.8850002736 36.045001432 137.5 
6.8850002736 36.180001438 137.5 6.8850002736 36.315001443 137.5 6.8850002736 36.450001448 137.5 
6.8850002736 36.585001454 137.5 6.8850002736 36.720001459 137.5 6.8850002736 36.855001464 137.5 
6.8850002736 36.99000147 137.5 6.8850002736 37.125001475 137.5 6.8850002736 37.260001481 137.5 
6.8850002736 37.395001486 137.5 6.8850002736 37.530001491 137.5 6.8850002736 37.665001497 137.5 
6.8850002736 37.800001502 137.5 6.8850002736 37.935001507 129.5 6.8850002736 37.935001507 130 
6.8850002736 38.340001523 100.5 6.8850002736 38.340001523 101 6.8850002736 38.340001523 101.5 
6.8850002736 38.340001523 102 6.8850002736 38.340001523 104.5 6.8850002736 38.340001523 105 
6.8850002736 38.340001523 107 6.8850002736 38.340001523 107.5 6.8850002736 38.340001523 108 
6.8850002736 38.340001523 108.5 6.8850002736 38.340001523 109 6.8850002736 38.340001523 109.5 
6.8850002736 38.475001529 110 6.8850002736 38.475001529 110.5 6.8850002736 38.475001529 111 
6.8850002736 38.475001529 111.5 6.8850002736 38.475001529 112 6.8850002736 38.475001529 128 
6.8850002736 38.610001534 128 6.8850002736 38.74500154 128 6.8850002736 38.880001545 128 
6.8850002736 39.01500155 128 6.8850002736 39.150001556 128 6.8850002736 39.285001561 128 
6.8850002736 39.420001566 128 6.8850002736 39.555001572 128 6.8850002736 39.690001577 128 
6.8850002736 39.825001583 128 6.8850002736 39.960001588 128 6.8850002736 40.095001593 128 
6.8850002736 40.230001599 128 6.8850002736 40.365001604 128 6.8850002736 40.500001609 128 
6.8850002736 40.635001615 128 6.8850002736 40.77000162 128 6.8850002736 40.905001625 128 
6.8850002736 41.040001631 128 6.8850002736 41.175001636 128 6.8850002736 41.310001642 128 
7.0200002789 36.315001443 151 7.0200002789 36.450001448 151 7.0200002789 36.585001454 151 
7.0200002789 36.720001459 150.5 7.0200002789 36.855001464 150.5 7.0200002789 36.99000147 150.5 
7.0200002789 37.125001475 150.5 7.0200002789 37.260001481 150.5 7.0200002789 37.395001486 150 
7.0200002789 37.800001502 130 7.0200002789 37.935001507 130 7.0200002789 37.935001507 130.5 
7.0200002789 37.935001507 137 7.0200002789 38.070001513 130.5 7.0200002789 38.070001513 131 
7.0200002789 38.070001513 132 7.0200002789 38.205001518 131.5 7.0200002789 38.205001518 132 
7.0200002789 38.205001518 132.5 7.0200002789 38.340001523 102.5 7.0200002789 38.340001523 103 
7.0200002789 38.340001523 103.5 7.0200002789 38.340001523 104 7.0200002789 38.340001523 105.5 
7.0200002789 38.340001523 106 7.0200002789 38.340001523 106.5 7.0200002789 38.340001523 132.5 
7.0200002789 38.340001523 133 7.0200002789 41.445001647 127.5 7.0200002789 41.580001652 127.5 
7.1550002843 37.530001491 149.5 7.1550002843 37.665001497 149.5 7.1550002843 37.800001502 149.5 
7.1550002843 37.935001507 149.5 7.1550002843 38.070001513 137 7.1550002843 38.070001513 149 
7.1550002843 38.205001518 137 7.1550002843 38.340001523 133.5 7.1550002843 38.340001523 134 
7.1550002843 38.340001523 134.5 7.1550002843 38.340001523 135 7.1550002843 38.340001523 135.5 
7.1550002843 41.715001658 127 7.2900002897 38.205001518 149 7.2900002897 38.340001523 136 
7.2900002897 38.340001523 136.5 7.2900002897 38.340001523 137 7.2900002897 38.340001523 137.5 
7.2900002897 38.340001523 138 7.2900002897 38.340001523 149 7.2900002897 38.475001529 134 
7.2900002897 38.475001529 138.5 7.2900002897 38.475001529 139 7.2900002897 38.610001534 134 
7.2900002897 38.610001534 139.5 7.2900002897 38.610001534 140 7.2900002897 38.610001534 140.5 
7.2900002897 38.610001534 141 7.2900002897 38.74500154 141.5 7.2900002897 38.880001545 141.5 
7.2900002897 38.880001545 142 7.2900002897 39.01500155 141.5 7.2900002897 39.150001556 141.5 
7.2900002897 39.285001561 141.5 7.2900002897 39.420001566 141.5 7.2900002897 39.555001572 141.5 
7.2900002897 39.690001577 141.5 7.2900002897 39.825001583 141.5 7.2900002897 39.960001588 141 
7.2900002897 40.095001593 141 7.2900002897 41.850001663 127 7.2900002897 41.985001668 127 
7.2900002897 42.120001674 127 7.2900002897 42.255001679 127 7.2900002897 42.390001684 127 
7.2900002897 42.52500169 127 7.425000295 38.475001529 149 7.425000295 38.610001534 149 
7.425000295 38.74500154 134 7.425000295 38.74500154 149 7.425000295 38.880001545 134 
7.425000295 38.880001545 142 7.425000295 38.880001545 149 7.425000295 39.01500155 134 
7.425000295 39.01500155 142.5 7.425000295 39.01500155 149 7.425000295 39.150001556 134 
7.425000295 39.150001556 149 7.425000295 39.285001561 134 7.425000295 39.420001566 134 
7.425000295 39.555001572 134 7.425000295 39.690001577 134 7.425000295 39.825001583 134 
7.425000295 39.960001588 134 7.425000295 40.095001593 134 7.425000295 40.230001599 134 
7.425000295 40.230001599 141 7.425000295 40.365001604 134 7.425000295 40.365001604 141 
7.425000295 40.500001609 134 7.425000295 40.500001609 141 7.425000295 40.635001615 134 
7.425000295 40.77000162 134 7.425000295 40.905001625 134 7.425000295 41.580001652 132.5 
7.425000295 41.715001658 132.5 7.425000295 41.850001663 132 7.425000295 42.660001695 127 
7.5600003004 39.150001556 143 7.5600003004 39.150001556 143.5 7.5600003004 39.285001561 143.5 
7.5600003004 39.285001561 144 7.5600003004 39.285001561 149 7.5600003004 39.420001566 144 
7.5600003004 41.040001631 134 7.5600003004 41.175001636 134 7.5600003004 41.310001642 133.5 
7.5600003004 41.310001642 134 7.5600003004 41.445001647 133 7.5600003004 41.985001668 132 
7.5600003004 42.795001701 127 7.6950003058 39.420001566 149 7.6950003058 39.420001566 151 
7.6950003058 39.420001566 151.5 7.6950003058 39.420001566 152 7.6950003058 39.555001572 144.5 
7.6950003058 39.555001572 145 7.6950003058 39.555001572 149 7.6950003058 39.555001572 149.5 
7.6950003058 39.555001572 150 7.6950003058 39.555001572 150.5 7.6950003058 39.555001572 151 
7.6950003058 39.555001572 152.5 7.6950003058 39.555001572 153 7.6950003058 39.555001572 153.5 
7.6950003058 39.690001577 148.5 7.6950003058 39.690001577 149 7.6950003058 39.690001577 150.5 
7.6950003058 39.825001583 148 7.6950003058 39.825001583 150.5 7.6950003058 39.960001588 150.5 
7.6950003058 40.095001593 150.5 7.6950003058 40.230001599 150.5 7.6950003058 40.365001604 150.5 
7.6950003058 40.500001609 150.5 7.6950003058 40.635001615 150.5 7.6950003058 40.77000162 151 
7.6950003058 41.445001647 134 7.6950003058 41.580001652 134.5 7.6950003058 41.715001658 134.5 
7.6950003058 41.850001663 134.5 7.6950003058 41.985001668 134.5 7.6950003058 42.120001674 131.5 
7.6950003058 42.120001674 134.5 7.6950003058 42.255001679 131.5 7.6950003058 42.255001679 134.5 
7.6950003058 42.390001684 131.5 7.6950003058 42.390001684 134.5 7.6950003058 42.52500169 131.5 
7.6950003058 42.660001695 131.5 7.6950003058 42.795001701 131.5 7.6950003058 42.930001706 127 
7.6950003058 42.930001706 131.5 7.6950003058 43.065001711 127 7.6950003058 43.065001711 131.5 
7.6950003058 43.200001717 127 7.6950003058 43.200001717 131.5 7.6950003058 43.335001722 127 
7.6950003058 43.335001722 131.5 7.6950003058 43.470001727 127 7.6950003058 43.470001727 131.5 
7.6950003058 43.605001733 131.5 7.6950003058 43.740001738 131.5 7.6950003058 43.875001743 131.5 
7.8300003111 39.690001577 145.5 7.8300003111 39.690001577 154 7.8300003111 39.825001583 146 
7.8300003111 39.825001583 146.5 7.8300003111 39.825001583 147 7.8300003111 39.825001583 147.5 
7.8300003111 39.825001583 154.5 7.8300003111 39.825001583 155 7.8300003111 39.960001588 145.5 
7.8300003111 40.095001593 145.5 7.8300003111 40.230001599 145.5 7.8300003111 40.905001625 151 
[...]
CELL_DATA 3211
SCALARS angle%0A[rad] double
LOOKUP_TABLE default
0 1.090229335 1.090229335 0.90712926478 0.87900885969 0.1889521959 0.14317122312 0.26266790419 0.78488858253 
0.7261363044 0.67424384576 0.75527679617 0.68909389673 0.49745194888 0.59778982393 0.32215608782 0.45598338288 0.64394902541 
0.63029791404 0.6501515881 0.60029793866 0.18700448323 0.31799747227 0.57753888359 0.66294178127 0.63779899418 0.63583025482 
0.55037054605 0.44617063725 0.40496764879 0.38141421214 0.50375490611 0.77424674258 0.97341788313 0.42632824506 0.50375490611 
0.4797581862 0.4797581862 0.4797581862 0.47826483651 0.64011531692 0.19512676504 0.39672623872 0.45573481557 0.45573481557 
0.43445119098 0.41519243242 0.39748106844 0.30409960895 0.2850263435 0.2850263435 0.2850263435 0.26777989929 0.26777989929 
0.26777989929 0.23747899916 0.26777989929 0.26366259694 0.25244645839 0.24212764841 0.36513956907 0.39667557432 0.30597426272 
0.37858144766 0.24480862861 0.35984786238 0.10869136042 1.0082048829 1.0691928362 1.1164997967 1.1806606593 1.1806606593 
1.1619668022 1.1432881941 1.1577194357 1.153396433 1.1572280566 1.155205858 1.1002799058 1.0791071837 1.0898012753 
1.0959468911 1.0403028834 1.0410306847 1.0433781142 0.98997568287 0.93915673241 0.70890521974 0.73517006437 0.45558608082 
0.50293205433 0.48670212284 0.42836756676 0.15500422371 0.20349151795 0.2507427067 0.32173006741 0.4204333514 0.58134456533 
0.45617941233 0.58271176617 0.15117115246 0.37174646792 0.34387982386 0.2923364681 0.25973153373 0.23149008395 0.15150636752 
0.079763320111 0.14398087927 0.26653393736 0.44315687124 0.73845576497 0.4426582844 0.26295883502 0.12157102605 0.13270107919 
0.10795487937 0.10795487937 0.10795487937 0.10795487937 0.10795487937 0.18705069844 0.1415261619 0.1415261619 0.10822048901 
0.19256211089 0.20344840165 0.22004329814 0.3296393394 0.17249907496 0.20459551283 0.21495326814 0.21495326814 0.21495326814 
0.22114651361 0.19637478968 0.19151190916 0.22194718136 0.22194718136 0.22969757848 0.19863555422 0.18318731351 0.19750725525 
0.19750725525 0.26976531916 0.2890767432 0.32343059846 0.29662730769 0.29662730769 0.29662730769 0.31170322332 0.10148035128 
0.10185447435 0.16175230138 0.067705175935 0.067705175935 0.067705175935 0.10148035128 0.10270695726 0.10759277692 0.13404283527 
0.13280664985 0.13464253129 0.1445591352 0.15145611994 0.1677365982 0.17351526748 0.33296442187 0.39963652326 0.39204469244 
0.38465640718 0.37759012682 0.36234836365 0.34856631059 0.24307694373 0.225098116 0.25186338453 0.23072045384 0.23845590133 
0.24841258544 0.21523944134 0.21523944134 0.21523944134 0.26870339594 0.25716770482 0.10056714967 0.10056714967 0.1399574936 
0.033544764234 0.11288443614 0.15753749472 0.28331110694 0.32449940446 0.41287690166 0.45832391363 0.39536444109 0.41823184636 
0.44219517336 0.43628663793 0.19933545586 0.13778372171 0.15909575802 0.13778372171 0.15629723944 0.095373469714 0.072171707866 
0.085826831938 0.15918401652 0.1848625677 0.061912104374 0.17055899468 0.12549140858 0.18261455565 0.16169749365 0.1494938446 
0.13815518837 0.11278911001 0.15006775901 0.19486769134 0.29470761839 0.31293312513 0.34521907475 0.34548662085 0.34741205917 
0.41982618774 0.44642214354 0.46458401574 0.54556780733 0.592508015 0.60251237159 0.67123915269 0.69446587869 0.71168135721 
0.67040589333 0.53658479597 0.52158271314 0.43077998538 0.41685681943 0.29179606892 0.192773667 0.14005841842 0.12445861701 
0.11374613158 0.11405416391 0.16855856812 0.20440878267 0.097044096901 0.060300643582 0.14633607206 0.084813869738 0.060230578582 
0.086304079787 0.060300643582 0.085174925961 0.085174925961 0.32167376546 0.28742957389 0.18864862103 0.36475182886 0.21774197333 
0.20918903244 0.26165454611 0.059233276693 0.083598281655 0.15336481808 0.19205417555 0.16164350004 0.1121146063 0.095235821013 
0.11053410582 0.059440763125 0.16913163262 0.13463454582 0.10903043722 0.097141387889 0.086304079787 0.060300643582 0.060300643582 
0.060300643582 0.11052671408 0.2382227218 0.14456648099 0.18600161523 0.11994960785 0.24267116418 0.076219594234 0.18871866999 
0.23595802494 0.21423436831 0.25069766495 0.15156375429 0.058910677785 0.23265268364 0.20427502747 0.20427502747 0.17183262763 
0.17183262763 0.15969854991 0.17124635591 0.14856194027 0.13674820978 0.076219594234 0.076219594234 0.085174925961 0.085174925961 
0.053947605782 0.51471681922 0.60943265646 0.7250650822 0.81978958503 0.73317808058 0.60791669159 0.83729033764 0.7093182817 
0.52904098457 0.35052678499 1.3841463413 0.2832379079 0.15217202363 0.21170444861 0.18900978246 0.09628665457 0.15652408488 
0.076219594234 0.084638093885 0.085174925961 0.19003478073 0.038165226606 0.24751214295 0.22454112 0.038116674861 0.038054367628 
0.026915082233 0.026915082233 1.6039880856 1.7770842406 1.7671679214 1.7590302635 1.5423094996 1.5216143344 1.5002473907 
1.4815329272 1.4659248375 1.3945335643 1.3837733094 1.3786803792 1.2946431652 1.3031975042 1.3229121745 1.3567564001 
1.2997570297 1.3771490616 1.4963569163 0.42023062442 0.28806026855 0.026915082233 0.026915082233 0.053810620226 0.038116654675 
0.085224345466 0.080911604691 0.080911604691 0.053967227959 0.076288829507 0.060296248577 0.060296248577 0.060296248577 0.060348916429 
1.0239089143 1.2186826393 1.5169270532 1.4900898499 1.4633686237 1.4368004839 1.3930163863 1.3641652117 1.3356587493 
1.2765342079 1.2459885135 1.216058341 1.1867772204 1.1071941495 0.02699344294 0.026983613979 0.026983613979 0.026983613979 
0.026983613979 0.02699344294 0.060348916429 0.060348916429 0.060348916429 0.26904737072 0.24267116418 0.02699344294 0 
0.065545761819 0.071963106577 0.080941048722 0.094391209329 0 0.02699344294 0.02699344294 0.2164722586 1.330217994 
1.4251612008 1.3988126486 0.1848348924 1.3723920154 1.9698017761 2.0823269402 2.0740710503 2.0664187222 2.0825537855 
2.0756762518 2.0705104526 2.0672245332 2.0401890148 2.0380996282 2.0400666226 1.9997548525 2.0068104463 1.7663917357 
1.7706750435 1.6725582545 1.687298089 1.2216140791 0.5586248777 0.60957364008 0.68075189628 0.60803586728 0.74529334726 
0.50577979377 0.48716454355 0.94329457555 1.2156297619 1.4676375552 1.4173791274 1.3626916877 1.3157371027 1.2459126038 
1.1671010148 1.0765992667 0.94297615885 1.4978051485 1.3461873469 1.3123457028 1.2849527011 1.2055437613 1.1765992558 
1.1447659245 1.1133695845 1.0489262097 1.0150754052 0.98775409517 0.95594477103 0.83548564862 0.81305034003 0.77884003851 
0.67345625199 0.64645116895 0.62108172063 0.51349237738 0.40368717665 0.39137121361 0.38256438596 0.37373516674 0.30823079304 
0.22123680362 0.44195425541 0.1848348924 1.4759390639 1.4039938435 1.3440223636 1.6013258388 1.5707963268 1.5439512363 
1.5093239646 1.4794725481 1.4497835109 1.4203095401 1.337123876 1.3054350585 1.274307941 1.2438038241 1.1680663261 
1.1361572996 1.105392636 1.0090335299 0.97929886309 0.95239479149 0.930113514 0.83258011429 0.85408515722 0.7498467418 
0.19915329964 0.2202881003 0.15279816576 0.24562499963 0.15247969087 0.18533672575 2.0482083994 2.2310221496 0.12051277516 
0.087177494498 0.19812885854 0.21570875362 0.2345310443 0.26338413147 0.29800787351 0.30627998985 0.30737809675 0.33499289044 
0.3615358064 0.39064915175 0.42258388412 2.3711346027 2.3760497543 2.3830955817 2.3558856462 2.3647359052 2.3763064122 
2.3907481189 2.3877808743 0.63713699745 0.1985201739 0.45761500177 0.50719722443 0.5479335226 2.1665081745 2.1864170226 
2.2142250406 1.8473556929 1.9033022914 1.8384156622 1.9244189012 1.5351495652 1.5138812602 1.2145233405 1.0340043734 
0.80617910142 0.62121380426 0.5928425286 0.65823286551 0.71086216261 0.76870041821 0.8319009072 0.64250455927 0.72901820192 
0.46881797653 0.59269992618 0.57466523452 1.4871449188 1.5986885338 1.6808340978 0.58281054783 0.16845020428 0.16910683382 
0.15745743005 0.18177252584 0.20765154317 0.30652729936 0.33349632577 1.6615535438 1.6200394109 1.7021723159 1.6848155996 
1.6685313697 1.6188769505 1.7140614045 1.7016859212 1.6909903586 1.6574948449 1.7287433806 1.7210318416 1.7153973634 
1.640533253 0.67638802349 0.86892272928 1.7227179634 0.7314969351 1.722566586 0.13307455505 0.28207882451 0.26229180613 
0.24175821985 0.22113689968 0.2017477795 0.18603873517 0.17801582534 0.18279118566 0.20443897991 0.24402560081 0.30036553898 
0.37183204557 0.45705525542 0.55469174225 0.45432889694 0.98556124894 0.93891228246 1.6585904727 1.7046662452 0.72477575485 
0.75536957712 0.78940063727 0.82778130701 0.87121254084 0.92049639685 0.97652723674 1.0402601931 1.1140574862 1.1968187396 
1.2902670671 1.3944054942 1.1754844919 1.3908756826 1.7079921149 1.4188342798 1.2964726622 1.3171367296 1.3399484719 
1.3648075562 1.2628403026 1.2958208715 1.3302729364 1.246214094 1.2861660182 1.3305216139 1.2659226233 1.1664513727 
1.0454305732 0.82318325307 0.73736601898 0.4567184584 0.77052063889 0.78947038482 0.2602951988 0.14318875435 0.2419633593 
0.17144372779 0.52487793787 0.47879039345 0.63998712765 0.62201069891 0.5976093439 0.57242779278 0.54647241313 0.687072994 
0.83780324384 0.40448454095 0.6353950533 0.72745160017 0.88632291197 1.0855769263 0.48469702048 0.48469702048 0.46770947695 
0.46770947695 1.138611602 1.3026939239 1.2677909366 1.2334812602 1.1998539513 1.1068704402 1.0640669587 1.0292439162 
1.0185597177 0.97807898262 1.0291357575 0.99340175967 1.3083924571 1.3536555335 1.3662133917 0.98315559351 0.87557753198 
0.98805290674 1.0214855884 1.1677334118 1.2765135137 0.36397895651 0.30805278102 0.52413380896 0.30338017092 0.27147489423 
0.23712252203 0.28166940517 0.30251400452 0.27148658548 0.26853386193 0.084857716226 0.092817532723 0.13425302244 0.17590448178 
0.1554352992 0.18794209719 0.21781332209 0.24847358073 0.28300728219 0.32033013717 0.39918190878 0.3868786203 0.30472357572 
0.26519597929 0.31257948879 0.30657817705 0.36209331129 0.20130762671 0.27153776839 0.29822779307 0.35587411997 0.36275083468 
0.04274584255 0.1458126704 0.19628056064 0.41865072299 0.54710561446 0.58310073471 0.16618281045 0.12277918498 0.12277918498 
0.16456995105 0.21189121887 0.28477440562 0.15283325292 0.1045673727 0.13592814338 0.14765377776 0.16546843444 0.10608608044 
0.14028799566 0.14190817408 0.14190817408 0.15589197665 0.14190817408 0.17307140904 0.1048169855 0.15926923435 0.15589197665 
0.03114290212 0.084459925448 0.11493558762 0.15514915339 0.11875097786 0.07070335646 0.075507082754 0.10989781729 0.089498300571 
0.22029957544 0.19706455569 0.33402593788 0.32799871084 0.25883526399 0.25218263545 0.23073816186 0.24070205077 0.43233378058 
0.31531031969 0.17174706155 0.13253385857 0.80631608995 0.93502274348 0.3716796917 0.28645969712 0.3090817952 0.37252612155 
0.34682789451 0.31238015871 0.29766658139 0.33249853077 0.17346107175 0.1546115322 0.19613409441 0.093474588192 0.19961429712 
0.1785234385 0.1353958033 0.25034856166 0.26194468349 0.28750147302 0.29673178234 0.27878780803 0.2706072895 0.27407992016 
0.22153198697 0.18515563786 0.20783176403 0.19478663624 0.20387597685 0.14457923312 0.11100655458 0.097195734459 0.053947605782 
0.060300643582 0.13467567676 0.13887008371 0.12391310857 0.13071382724 0.12225437941 0.085311065802 0.098161356966 0.02699344294 
0 0 0.36665419431 0.053947605782 0.053947605782 0.053947605782 0.053947605782 0.02699344294 0.078434468892 
0.062764734797 0.10719529028 0.053947605782 0.2278191144 0.13418873322 0.26371184446 0.038116654675 0.036059785122 0.033688131218 
0.031040069096 0.044822870557 0.038026843819 0.055421009745 0.05450835738 0.085174925961 0.085174925961 0.12050498906 0.060173747175 
0.076067713233 0.076067713233 0.086587109253 0.099756670422 0.080140600029 0.09628665457 0.075834365359 0.10435733056 0.089842952158 
0.13413987316 0.097044096901 1.4639988062 1.4194687637 1.3742978853 1.3197290485 1.2694072307 1.2360652515 1.160476663 
1.1031210756 0.97766181378 0.91488643873 0.85116415858 0.72360616992 0.65563071467 0.58687465133 0.45188322531 0.40011080326 
0.38650207516 0.29887270704 0.47298833741 0.91329204155 0.81341234638 0.20452812247 0.085174925961 0.059758297912 0.085174925961 
0.13413987316 0.085174925961 0.066575472846 0.13829282668 0.09661420808 0.085174925961 0.14482864035 0.19584214094 0.22153326866 
0.2602794665 0.34554256325 0.29191959709 0.085079281462 0.085079281462 0.096774483767 0.11397182685 0.038026843819 0.026749889395 
0.026749889395 0.080212441851 0.080212441851 0.075834365359 0.060108489129 0.060108489129 0.096774483767 0.075834365359 0.038026843819 
0.084931549555 0.053810620226 2.1073424255e-08 2.1073424255e-08 0.026954191393 0.026954191393 0.026954191393 0.038116654675 0.026954191393 
0.026954191393 0.038116654675 0.053810620226 2.1073424255e-08 2.1073424255e-08 0.037951058558 0.037951058558 0.037951058558 0.075629296546 
0.071951149284 0.087114385094 0.10670327197 0.063126523919 0.096250607763 0.13280214949 0.036724508396 0.095384107305 0.27023348116 
1.4531042202 1.5168773375 1.4961928885 1.4512096465 1.5514797424 1.5094379433 1.4676846227 1.3628787546 1.3183828475 
1.2750973582 1.4547953895 1.3864063802 1.3678804007 1.3567495845 1.2458025499 1.2569431694 1.1975753286 1.2497280208 
1.2722254958 1.2075389715 1.3467796787 1.5621090302 0.79313937541 0.17713878368 0.1094186989 0.16501408116 0.13413987316 
0.11405416391 0.23265190627 0.29096147926 0.27023348116 0.13418873322 0.05994773177 0.054753501756 0.087234139193 0.044894595345 
0.13418873322 0.13418873322 0.055521441212 0.097044096901 0.097044096901 0.060300643582 0.060300643582 0.060300643582 0.038165226606 
0.038165226606 0 0 0.02699344294 0.19003478073 1.4136650822 0.062764734797 0.053947605782 0.053947605782 
0.18014091779 1.5292129744 0.053947605782 0.2907052874 0.16340591384 0.02699344294 0.71964101839 1.5203544353 1.667519177 
1.6559371452 1.5098350588 0 0 0 0 0 0 0 
0 0 0 0.060300643582 0.060300643582 0.02699344294 0.02699344294 0.053947605782 0.059928157497 
0.067397766388 0.011558875938 0.017976220696 0.026954162841 0.10867053247 0.12855325967 0.10719529028 0.23671840152 0.085311065802 
0.089119195674 0.091723986977 0.070875378273 0.076847555213 0.085311065802 0.15062585505 0.17267017504 0.188136339 0.31765945024 
0.080911604691 0.053927990711 0.066981689732 0.075324514878 0.081576491377 0.093718826816 0 0.013450160607 0.035810571956 
0.080241127439 0.21146365257 0.020085334068 0.026915082233 0.042471724507 0.09628665457 0.15520541673 0.060300643582 0.11994960785 
0.096936099044 0.053869273626 0.060230578582 0.11637832572 0.11910268947 0.21459749042 0.28064347027 0.33826326525 0.17486149868 
0.24607002375 1.6462226747 1.4720307341 0.34646436331 0.080241127439 0.57882731501 0.20976423868 0.78015058907 0.31263264304 
1.1454324695 1.2068201391 1.2298354968 1.2665688774 1.3949309737 1.2237371895 1.2151387096 1.2272311904 1.141705379 
1.168359739 1.1973775845 1.2312090874 1.1600521264 1.2148890997 1.2642940513 1.3167110283 1.3759810918 1.4388808007 
1.3941196046 1.4673759566 1.5418603593 0.901968471 1.0345544984 0.98653795734 0.83111495459 1.4856214008 1.4625795201 
2.7004858872 2.7824469779 2.7836176218 1.5124852124 0.62152977828 1.4633686237 1.4368004839 0.51895286671 0.72198561961 
0.56261940476 1.460949723 1.4277418571 1.4016646942 1.4570704453 0.37641802843 1.3851951562 2.7852771686 0.39790057768 
0.3712948591 0.14620745037 0.16243552948 0.20489213761 0.30842485473 1.2744351796 2.7531777102 2.7493595076 0.20414967703 
0.24267116418 0.2164722586 0.31765945024 0.17119215909 0.15615398149 2.7477775886 2.6703924724 2.5460619709 1.1237687378 
2.3188639432 1.7957776048 1.3831753965 1.0703065701 0.58587023709 0.11052671408 0.042471724507 0.064676540544 0.09661420808 
0.21146365257 1.4222976149 1.3811758247 1.3601688263 1.3357422238 1.3147025691 1.2952619445 1.2776564445 1.075328699 
1.0247735789 0.86864987371 0.52395868657 0.89787271983 0.39162136788 0.060300643582 0.26137560256 0.059095153669 0.026456351662 
0.16908096343 0.038165226606 0.038165226606 0.094801911908 0.058498843034 0.93851004852 1.1149412834 1.0574219003 0.96309887313 
0.85309635798 0.68713658556 0.51829353772 0.31954150419 1.1953433707 1.1163772974 0.47291179638 0.42496349648 0.28554441435 
0.093562428324 0.036830966821 0.093562428324 0.12865811013 0.13280214949 0.097044096901 0.14490393261 0.31457237236 1.0652958024 
1.6069362622 1.5843237587 1.5792077201 1.5702217783 1.5533602154 1.5437379957 1.517921549 1.526462495 1.5540919631 
1.5191257604 1.6161377843 1.6877215163 1.9374225135 1.1508133047 1.2456312081 0.18472884384 0.1276886162 1.5707963268 
1.2228267163 1.7451838816 0.1276886162 0.091389913241 1.7258812623 0.05730601745 0.025762842519 0.080883380196 0.051281551342 
0.036704040784 0.056320706493 0.067072299652 0.045958167693 0.061722824773 0.083297193678 0.036872074057 0.053629548926 0.034867821956 
0.092106535896 0.27950082095 0.073101192641 0.13119251963 0.14199829797 0.20204128501 0.25696327635 0.30590977654 0.35804829949 
0.47044280057 0.49447099074 0.57063851582 0.63079375189 0.67868347503 0.61741077804 0.78898650844 0.56771963953 1.3212863248 
1.323446137 1.9032162195 1.8930129335 1.8471317784 1.6048272095 1.5883733693 1.5389379334 1.4181749319 1.3668984332 
1.2125487368 1.1643984022 1.1226586438 0.97326273157 0.94402947819 0.92540941958 0.83606291512 0.88482970072 0.94575526801 
0.81497220409 0.84567382159 0.94590103749 1.1112654269 1.2255676215 1.1528009852 1.1099780937 1.0969311324 1.0807507669 
1.0393066156 1.1510207981 1.0582751014 1.01883714 0.82150648831 1.710277067 1.68331901 1.6759769015 1.6723690992 
1.6430124227 1.6519395482 1.6787876146 1.6812697515 1.7702869267 0.71447758314 0.9267571617 0.75475197464 0.68591488593 
0.72655849606 0.83826734053 0.040161706833 0.28910596716 0.36327199877 0.26295024761 0.19874484213 0.18210025392 0.21569907607 
0.22480895442 0.1762721549 0.29826011452 0.32369423057 0.36443448 0.41707935894 0.48464880969 0.58010482484 0.71767984563 
0.91938775072 0.011916520006 0.82330061124 1.0101824322 0.9105613036 0.92539759516 0.94890773441 0.13925968251 0.12287113852 
1.1753272417 0.12287113852 1.1688187459 1.1688187459 1.1483405916 1.1511561108 1.1497885769 1.1492127737 1.1078948945 
1.038224652 1.04795668 0.97019944755 0.94674239154 0.70220634144 0.68749333058 0.65686744722 0.45412417989 0.47601158041 
0.3972996778 0.38736833429 0.32882607584 0.29622709339 0.022397749773 0.042063324516 0.075199962727 0.10601987371 0.14262267047 
0.17313723532 0.11965473893 0.13474955334 0.41561743908 0.26519465647 0.18721930204 0.13206755936 0.046340435006 0.20130841154 
0.48551783196 0.77481411119 0.22950710273 0.27850130925 0.32308748703 0.31055731004 0.34767726707 0.42456780086 0.31763116252 
0.27536436838 0.29321735631 0.28162345025 0.32751579199 0.34534946377 0.30243048016 0.34077897809 0.31723719975 0.31723719975 
0.33116380679 0.32694459918 0.34644605836 0.3316900596 0.3316900596 0.35339188 0.35274087529 0.1457034339 0.1625277682 
0.14915398903 0.17678310883 0.25667436158 0.39034124788 0.18124208577 0.26150583123 0.30940764196 0.26279853256 0.20792969866 
0.29008899428 0.26635599112 0.29466007961 0.17139319451 0.18372907602 0.20137930264 0.11502800038 0.070577621805 0.21488372406 
0.23579177059 0.15276372822 0.22410145893 0.11479836732 0.1260887234 0.24890557974 0.12852676645 0.17291873394 0.2605602813 
0.24890557974 0.10989875428 0.15081363946 0.18028175437 0.14619514715 0.25619596478 0.2338337941 0.12958076955 0.1920466731 
0.30207524759 0.21377882077 0.16469080132 0.12254479194 0.16916605619 0.24030089151 0.2944152943 0.27481823616 0.34877266843 
0.27793810779 0.11328068129 0.1447716623 0.19480650302 1.1201728343 0.87775104179 0.91550413931 1.0116085516 1.131750369 
0.80711176016 0.25518239062 0.71882999962 0.61036679171 0.46642404372 0.39381518479 0.35503286748 0.28330626513 0.15501736633 
0.76517598352 0.76455718498 0.76890476229 0.77760489081 0.7989513337 0.81502836642 0.83344873813 0.85408000208 0.87670261801 