# vtk DataFile Version 5.1
vtk output
ASCII
DATASET POLYDATA
POINTS 3900 double
23.490000933 60.075002387 92 23.625000939 59.535002366 106.5 23.625000939 59.535002366 107 
23.625000939 59.535002366 107.5 23.625000939 59.670002371 106.5 23.625000939 59.670002371 107 
23.625000939 59.670002371 107.5 23.625000939 59.805002376 107 23.625000939 60.210002393 92.5 
23.760000944 57.915002301 108.5 23.760000944 58.320002317 107.5 23.760000944 58.455002323 107.5 
23.760000944 58.590002328 107.5 23.760000944 58.590002328 108 23.760000944 58.725002334 107.5 
23.760000944 58.725002334 108 23.760000944 58.860002339 107.5 23.760000944 58.995002344 107.5 
23.760000944 59.13000235 107 23.760000944 59.13000235 107.5 23.760000944 59.265002355 107 
23.760000944 59.265002355 107.5 23.760000944 59.40000236 106.5 23.760000944 59.40000236 107 
23.760000944 59.40000236 107.5 23.760000944 59.535002366 106.5 23.760000944 60.210002393 93 
23.760000944 60.210002393 93.5 23.89500095 32.670001298 128.5 23.89500095 57.780002296 108 
23.89500095 57.780002296 108.5 23.89500095 57.915002301 108 23.89500095 58.050002307 108 
23.89500095 58.185002312 108 23.89500095 58.320002317 108 23.89500095 58.455002323 107.5 
23.89500095 58.455002323 108 23.89500095 58.590002328 107.5 23.89500095 59.670002371 106 
23.89500095 60.210002393 94 24.030000955 32.805001304 128.5 24.030000955 32.940001309 128 
24.030000955 33.750001341 128.5 24.030000955 57.37500228 108.5 24.030000955 57.510002285 108.5 
24.030000955 57.645002291 108.5 24.030000955 59.805002376 106 24.030000955 60.210002393 94.5 
24.030000955 60.210002393 95 24.16500096 32.940001309 128.5 24.16500096 33.075001314 128 
24.16500096 33.075001314 128.5 24.16500096 33.615001336 128.5 24.16500096 56.835002258 108.5 
24.16500096 56.970002264 108.5 24.16500096 57.105002269 108.5 24.16500096 57.240002275 108.5 
24.16500096 59.940002382 105.5 24.16500096 60.345002398 95.5 24.16500096 60.345002398 96 
24.300000966 33.21000132 128 24.300000966 33.345001325 128 24.300000966 33.48000133 128 
24.300000966 56.565002248 109 24.300000966 56.700002253 109 24.300000966 59.940002382 105.5 
24.300000966 60.345002398 96 24.300000966 60.345002398 96.5 24.435000971 33.48000133 127.5 
24.435000971 33.615001336 127 24.435000971 56.025002226 109.5 24.435000971 56.160002232 109 
24.435000971 56.295002237 109 24.435000971 56.430002242 109 24.435000971 60.075002387 105 
24.435000971 60.345002398 96.5 24.435000971 60.345002398 97 24.570000976 33.750001341 126.5 
24.570000976 55.485002205 109.5 24.570000976 55.62000221 109.5 24.570000976 55.755002216 109.5 
24.570000976 55.890002221 109 24.570000976 55.890002221 109.5 24.570000976 56.025002226 109 
24.570000976 60.075002387 105 24.570000976 60.345002398 97.5 24.705000982 33.750001341 126 
24.705000982 55.080002189 110 24.705000982 55.215002194 109.5 24.705000982 55.215002194 110 
24.705000982 55.350002199 109.5 24.705000982 55.350002199 110 24.705000982 55.485002205 109.5 
24.705000982 55.485002205 110 24.705000982 55.62000221 109.5 24.705000982 60.075002387 104.5 
24.705000982 60.345002398 98 24.840000987 33.615001336 125.5 24.840000987 33.750001341 125.5 
24.840000987 33.885001346 125.5 24.840000987 54.540002167 110 24.840000987 54.675002173 110 
24.840000987 54.810002178 110 24.840000987 54.945002183 110 24.840000987 60.075002387 104.5 
24.840000987 60.480002403 98.5 24.840000987 60.480002403 99 24.975000992 34.020001352 125 
24.975000992 54.270002156 110.5 24.975000992 54.405002162 110 24.975000992 60.210002393 104 
24.975000992 60.480002403 99.5 25.110000998 34.155001357 124 25.110000998 34.155001357 124.5 
25.110000998 53.59500213 110.5 25.110000998 53.730002135 110.5 25.110000998 53.86500214 110.5 
25.110000998 54.000002146 110.5 25.110000998 54.135002151 110.5 25.110000998 60.210002393 104 
25.110000998 60.480002403 100 25.110000998 60.480002403 100.5 25.245001003 34.155001357 124.5 
25.245001003 34.290001363 124 25.245001003 53.325002119 111 25.245001003 53.460002124 110.5 
25.245001003 53.460002124 111 25.245001003 53.59500213 110.5 25.245001003 53.59500213 111 
25.245001003 53.730002135 110.5 25.245001003 60.345002398 103.5 25.245001003 60.480002403 101 
25.380001009 34.290001363 124 25.380001009 52.785002097 111 25.380001009 52.920002103 111 
25.380001009 52.920002103 111.5 25.380001009 53.055002108 111 25.380001009 53.055002108 111.5 
25.380001009 53.190002114 111 25.380001009 60.345002398 103.5 25.380001009 60.480002403 101.5 
25.380001009 60.480002403 102 25.380001009 60.480002403 102.5 25.515001014 34.425001368 123.5 
25.515001014 52.245002076 111.5 25.515001014 52.380002081 111.5 25.515001014 52.515002087 111.5 
25.515001014 52.650002092 111.5 25.515001014 52.785002097 111 25.515001014 52.785002097 111.5 
25.515001014 60.480002403 103 25.650001019 34.560001373 123 25.650001019 51.975002065 111.5 
25.650001019 51.975002065 112 25.650001019 52.110002071 111.5 25.650001019 52.110002071 112 
25.650001019 52.245002076 112 25.650001019 52.785002097 111 25.785001025 34.560001373 122.5 
25.785001025 51.435002044 112 25.785001025 51.570002049 112 25.785001025 51.705002055 112 
25.785001025 51.84000206 112 25.92000103 34.695001379 122 25.92000103 51.165002033 112 
25.92000103 51.300002038 112 26.055001035 34.830001384 121.5 26.055001035 50.625002012 112 
26.055001035 50.760002017 112 26.055001035 50.895002022 112 26.055001035 51.030002028 112 
26.190001041 34.965001389 121 26.190001041 35.2350014 120 26.190001041 50.220001996 112.5 
26.190001041 50.355002001 112.5 26.190001041 50.490002006 112.5 26.190001041 50.625002012 112.5 
26.190001041 50.760002017 112.5 26.190001041 50.895002022 112.5 26.325001046 34.965001389 120.5 
26.325001046 35.2350014 120 26.325001046 49.140001953 113.5 26.325001046 49.815001979 112.5 
26.325001046 49.950001985 112.5 26.325001046 50.08500199 112.5 26.460001051 35.100001395 120 
26.460001051 35.2350014 120 26.460001051 49.005001947 113.5 26.460001051 49.410001963 113 
26.460001051 49.545001969 113 26.460001051 49.680001974 113 26.460001051 49.815001979 113 
26.460001051 49.950001985 113 26.595001057 34.830001384 120 26.595001057 34.965001389 120 
26.595001057 35.100001395 120 26.595001057 35.2350014 120 26.595001057 35.370001405 120 
26.595001057 48.33000192 114 26.595001057 48.735001937 113.5 26.595001057 48.870001942 113.5 
26.595001057 49.005001947 113 26.595001057 49.140001953 113 26.595001057 49.275001958 113 
26.730001062 35.505001411 120 26.730001062 36.180001438 119.5 26.730001062 47.925001904 113.5 
26.730001062 47.925001904 114 26.730001062 48.195001915 114 26.730001062 48.465001926 113.5 
26.730001062 48.600001931 113.5 26.730001062 48.735001937 113.5 26.730001062 48.870001942 113.5 
26.730001062 49.005001947 113.5 26.730001062 49.140001953 113.5 26.865001068 35.505001411 120 
26.865001068 35.640001416 120 26.865001068 35.775001422 120 26.865001068 36.045001432 119.5 
26.865001068 47.385001883 114.5 26.865001068 47.790001899 114 26.865001068 47.925001904 113.5 
26.865001068 47.925001904 114 26.865001068 48.06000191 113.5 26.865001068 48.06000191 114 
26.865001068 48.195001915 113.5 26.865001068 48.33000192 113.5 27.000001073 35.505001411 120 
27.000001073 35.910001427 119.5 27.000001073 36.045001432 119.5 27.000001073 47.250001878 114.5 
27.000001073 47.385001883 114 27.000001073 47.520001888 114 27.000001073 47.655001894 114 
27.000001073 47.790001899 114 27.000001073 47.925001904 114 27.000001073 48.06000191 114 
27.000001073 48.195001915 114 27.135001078 35.505001411 120 27.135001078 36.180001438 119.5 
27.135001078 46.980001867 114.5 27.135001078 47.115001872 114.5 27.135001078 47.250001878 114 
27.135001078 47.250001878 114.5 27.135001078 47.385001883 114.5 27.270001084 36.315001443 119.5 
27.270001084 46.035001829 115.5 27.270001084 46.575001851 114.5 27.270001084 46.710001856 114.5 
27.270001084 46.845001861 114.5 27.405001089 36.450001448 119.5 27.405001089 36.585001454 119.5 
27.405001089 45.900001824 115.5 27.405001089 46.035001829 115 27.405001089 46.170001835 115 
27.405001089 46.30500184 115 27.405001089 46.440001845 115 27.540001094 36.720001459 119.5 
27.540001094 36.855001464 119.5 27.540001094 45.225001797 116 27.540001094 45.630001813 115.5 
27.540001094 45.765001819 115 27.540001094 45.765001819 115.5 27.540001094 45.900001824 115 
27.540001094 46.035001829 115 27.540001094 46.170001835 115 27.6750011 36.99000147 119.5 
27.6750011 44.820001781 116 27.6750011 45.090001792 116 27.6750011 45.225001797 115.5 
27.6750011 45.360001802 115.5 27.6750011 45.495001808 115.5 27.810001105 37.125001475 119.5 
27.810001105 37.260001481 119.5 27.810001105 44.28000176 116.5 27.810001105 44.685001776 116 
27.810001105 44.820001781 116 27.810001105 44.955001786 115.5 27.810001105 44.955001786 116 
27.810001105 45.090001792 115.5 27.810001105 45.090001792 116 27.810001105 45.225001797 116 
27.94500111 37.395001486 119.5 27.94500111 44.145001754 116.5 27.94500111 44.28000176 116 
27.94500111 44.415001765 116 27.94500111 44.55000177 116 27.94500111 44.685001776 116 
28.080001116 37.530001491 119 28.080001116 37.530001491 119.5 28.080001116 37.665001497 119 
28.080001116 43.470001727 117 28.080001116 43.875001743 116.5 28.080001116 44.010001749 116.5 
28.080001116 44.145001754 116 28.080001116 44.145001754 116.5 28.080001116 44.28000176 116.5 
28.080001116 44.415001765 116.5 28.215001121 37.665001497 119.5 28.215001121 37.800001502 119 
28.215001121 43.335001722 117 28.215001121 43.470001727 116.5 28.215001121 43.605001733 116.5 
28.215001121 43.740001738 116.5 28.350001127 37.935001507 119 28.350001127 38.070001513 119 
28.350001127 42.795001701 117 28.350001127 42.930001706 117 28.350001127 43.200001717 117 
28.350001127 43.335001722 116.5 28.485001132 38.205001518 119 28.485001132 42.52500169 117 
28.485001132 42.660001695 117 28.485001132 42.930001706 117 28.485001132 43.065001711 117 
[...]
CELL_DATA 3899
SCALARS angle%0A[rad] double
LOOKUP_TABLE default
0 0.7853981634 1.2408529318 1.2644803229 0.6331581505 0.31688315424 0.23843873021 0.20274303688 0.19251839172 
0.085520605313 0.073674101679 0.036932277045 0.090807788463 0.061753146392 0.056341135847 0.087519222529 0.12084326875 0.16085446583 
0.28698005761 0.27498054671 1.3403641527 0.57382473168 1.2134491275 1.187740639 1.1517934587 1.2060444979 1.1695491706 
0.46651316726 0.68720453071 1.4978898212 0 1.0583347115 1.2255676215 0.79904609976 0.70462117004 0.56766570176 
0.47531813203 0.41826139492 0.37520318778 0.33318476806 0.32381187799 0.27756601166 0.27986682329 0.33205143264 0.05797687715 
0.39260357142 0.37520318778 0.35104031458 0.33674707715 0.31933267868 0.30316782236 0.3107051579 0.27756601166 0.28666563958 
0.63360171922 0.24526509455 0.23719399919 0.25482846756 0.23424869221 0.31797635109 0.30501013876 0.58080851392 0.24065082266 
0.24065082266 0.42529275487 0.3277194015 0.33274306362 0.19189174527 0.17144372779 0.17144372779 0.20325179286 0.18552897792 
0.18885965246 0.18690831645 0.16044467448 0.14639814949 0.15660187698 0.17048987291 0.16941304389 0.20065287732 0.23737424697 
0.36172924152 1.4983907208 1.763977068 1.7461450408 1.7351125297 1.7586942106 1.856410089 1.6691339643 2.0277344047 
1.0673634789 0.45980086269 1.5795481293 1.6246707458 1.5707963268 1.4578457613 1.3361012066 1.280370389 1.1546562213 
0.9880090184 0.9979104446 0.93190340069 0.92773483576 0.93289649291 0.80629843595 0.75376312769 0.78642621345 0.92327477449 
0.77460683924 0.85092591856 0.58141743713 0.63658076703 0.82614650785 0.9990240339 1.1478417835 1.2216418287 1.124003656 
0.96544762498 1.3774939421 0.93156755258 1.0781993184 1.2790951271 1.2298735336 0.90696666982 0.72367466771 0.60336896981 
0.87895622494 0.7711973024 0.80035946068 0.71318640628 0.66483971671 0.62159661728 0.75487032575 0.21603994954 0.18501562131 
0.090518606886 0.031847504378 0.10578702722 0.53477759995 0.53616925051 0.56157965641 0.611755041 0.19935799356 0.63852049214 
0.611755041 0.59903540739 0.59903540739 0.71618729248 0.14317122312 0.63856493591 0.53616925051 0.56157965641 0.59903540739 
0.56157965641 0.611755041 0.10239098743 0.5412164499 0.53622476343 0.54447453959 0.59903540739 0.59903540739 0.033111718834 
0.5412164499 0.53622476343 0.53616925051 0.59903540739 0.59903540739 0.17844133817 0.53852165224 0.53622476343 0.5349805277 
0.53616925051 0.5412164499 0.51924342236 0.57466523452 0.48469702048 0.48469702048 0.14351516227 0.5412164499 0.53622476343 
0.59269992618 0.57466523452 0.55758197533 0.24078314237 0.53477759995 0.52976914763 0.53441089477 0.68225780947 0.84314478051 
0.25250494793 0.22151209511 0.19084582239 0.1420404538 0.10473175402 0.10892992573 0.14351516227 0.54278902146 0.53477759995 
0.53616925051 0.56157965641 0.71618729248 0.58516167104 0.59903540739 0.53616925051 0.59903540739 0.59903540739 0.064517454399 
0.038451515539 0.061585776147 0.23963076996 0.21138685984 0.16627232373 0.11795088761 0.048163681147 0.5467022163 0.5412164499 
0.53622476343 0.53616925051 0.611755041 0.59903540739 0.21450422305 0.71209478623 0.68225780947 0.59903540739 0.59903540739 
0.59903540739 0.10239098743 0.68973461309 0.59903540739 0.59903540739 0.59903540739 0.58017095375 0.56885056033 0.57418639543 
0.54447453959 0.56609422945 0.56233321618 0.52401909562 0.52283499834 0.69512248399 0.67427442916 0.43576938155 0.63875128292 
0.52916649596 0.58419236899 0.82560743579 0.80782728435 0.84610140528 0.72348582869 0.78267581161 0.65107621047 0.59778058495 
0.51594211509 0.51320714516 0.4160487377 0.45898731191 0.5210646893 0.54018059723 0.51172221668 0.55722811766 0.640894559 
0.59324723787 0.58036102462 0.52594525238 0.43285382678 0.33466008618 0.33813266259 0.27422805323 0.18875741151 0.19290484367 
0.10648276426 0.10648276426 0.026486823661 0.03793785424 0.041615145501 0.049219089353 0.035620762301 0.025900407941 0.018405016055 
0.049618399512 0.12845150078 0.2407698213 0.71706754238 0.56885056033 0.55120018216 0.56885056033 0.081351652565 0.057398114462 
1.3666209731 1.1608613592 1.12591757 0.55945838771 0.58753231338 0.611755041 1.3177277825 0.59269992618 0.57167890354 
0.68973461309 0.57073919127 0.469305149 0.59903540739 0.57466523452 0.37725008702 0.41303815535 0.58753231338 0.38843300254 
0.48469702048 0.59903540739 0.463647609 0.7853981634 0.58800260355 0.48703578899 0.59903540739 0.48469702048 1.045819006 
1.8140704552 1.433565485 1.178026442 0.71618729248 0.68537883428 0.58017095375 0.56233321618 0.46770947695 0.739685711 
1.3380343245 0.71618729248 0.69348121256 0.58715959517 0.71618729248 0.68537883428 0.59903540739 0.59903540739 0.71618729248 
0.68909389673 0.58017095375 0.463647609 0.3217505544 0.24497866313 0.62927433743 0.51099656383 0.50362840786 0.59903540739 
0.58753231338 0.56885056033 0 0.59903540739 0.59903540739 0 0.75152358087 0.71174411589 1.1533865465 
0.66139334392 0.54827434632 0.59903540739 0.59903540739 0.58753231338 0 0.30501013876 0.70877463639 0.67752540384 
0.28193234808 0.76787329874 0.73525033298 1.1169431116 0.69006411905 0.65322790205 1.1868071502 1.0960468604 1.0899232517 
0.80767878244 0.67516814816 0.68478445988 0.64415691933 0.81205779578 0.68827958827 0.71004761546 0.77083005621 0.57223220691 
0.70578840337 0.91685668833 0.78196654821 0.53892418099 1.0567433939 0.61424736413 0.59589990378 1.370645156 1.3234253772 
1.9743189866 2.1241091038 1.6244221551 1.6430377288 1.273885178 0.96691326823 0.98165913983 0.78450998212 0.7909156145 
0.69580451585 0.71565584067 0.77517604375 0.83836984711 0.7177051342 0.82365702724 1.0586672362 1.7329876614 1.2401412123 
0.43945005875 0.41784621309 0.40293635825 0.50199545165 0.70533780784 0.58622258819 0.8108646658 1.1660152624 1.2388739231 
1.1379911443 1.0965209109 1.0567433939 0.058817331075 0.15445713909 0.23687322959 0.43512501352 0.90860588183 0.89219558447 
0.63707858634 0.46598524791 0.41204220673 0.51856381305 0.52106109619 0.90755542197 0.94396325037 0.99226105635 0.61862280606 
0.61862280606 0.61862280606 0.26528991427 0.27881635133 0.63999060784 0.61786248604 0.59681821946 0.57633810275 0.19109656547 
0.22281664006 0.32402971785 0.56887902055 0.56205288206 0.54381000468 0.52660523832 0.51036178985 0.39604256331 0.26176228426 
0.37117855679 0.54381000468 0.54381000468 0.52660523832 0.51036178985 0.49500917262 0.38313772515 0.38785933958 0.39646857635 
0.40363572068 0.39912017027 0.39912017027 0.39912017027 0.1081760692 0.18588620678 0.32154524606 0.39912017027 0.39912017027 
0.39912017027 0.39912017027 0.032168216205 0.068885592106 0.20324264522 0.39912017027 0.39912017027 0.39912017027 0.39912017027 
0.39912017027 0.39912017027 0.32171973666 0.3876043788 0.41343886457 0.40519724587 0.38579065624 0.42390937717 0.42390937717 
0.42390937717 0.42390937717 1.2066712191 1.4715353236 1.4346429166 0.79442233126 0.76301973901 0.70150050074 0.24967237554 
0.48627487072 0.81900649197 0.97953050421 0.39214078927 0.55116854528 0.50187448065 0.5221512165 0.48789529586 0.64137367361 
0.64167370127 0.27357776294 0.56154160955 0.51620861051 0.51620861051 0.49466860862 0.49466860862 0.49466860862 0.42688800802 
0.37865522177 0.55408817419 0.55408817419 0.52711676738 0.52711676738 0.35586806998 0.34632005183 0.33752268998 0.28299895738 
0.20972224812 0.6646934629 0.58239316754 0.55168005329 0.32364158988 0.32364158988 0.25642063919 0.57500240786 0.62618082544 
0.59486048207 0.56619332369 0.26182631016 0.37575021824 0.39622775818 0.51684864955 0.99029497709 0.49039852897 0.37915157744 
1.2720403949 0.75628333596 0.67226536523 0.56291846209 0.44619926781 0.35328889212 0.21505691319 0.069653279519 0.076858973469 
0.25228736688 0.30112730762 0.39112558071 0.65004706107 0.53815306024 0.53815306024 0.53510883712 0.64394735803 0.80364711757 
1.0141325691 0.53815306024 0.53815306024 0.53815306024 0.3235610246 0.39059128104 0.51030317208 0.68535858233 0.55668440551 
0.42692396728 0.27758661572 0.24930585101 0.20218087852 0.15010682566 0.12881572641 0.53595246777 0.51889623698 0.52181129088 
0.52181129088 0.52181129088 0.52181129088 0.091501525188 0.52660523832 0.52660523832 0.52660523832 0.52660523832 0.52660523832 
0.58106860962 0.52181129088 0.52181129088 0.52181129088 0.8497678495 0.82614650785 0.52181129088 0.54097402854 0.07539728988 
0.13690830787 0.25338007263 0.53399377261 0.53399377261 0.11205226388 0.11153796365 0.13341320812 0.18642708852 0.25768912494 
0.38406103802 0.64563208814 0.62201069891 0.60489260379 1.4035375436 1.1934894824 2.9523969162 2.325744638 1.3910789386 
1.2720403949 1.6670981263 0.52660523832 0.51036178985 0.53399377261 0.52982691631 0.52982691631 1.4522447194 1.6670981263 
0.51036178985 0.66225174206 0.49500917262 0.53001072841 0.63524641607 0.77272871085 0.79258365866 0.52805498489 0.52204980347 
0.51523924177 0.53118420148 1.5138078119 1.5584536898 1.8095922632 1.7782221328 0.72940367453 0.51889623698 0.51889623698 
0.53118420148 0.53118420148 0.40028377463 0.40028377463 0.40028377463 0.3960205866 1.4369606409 1.6356458517 1.4307010566 
1.8095922632 0.44091915657 0.61409619198 0.3960205866 0.16259122692 0.16259122692 0.24859713254 0.25957608569 1.4496870646 
1.5707963268 1.4307010566 1.801509602 0.50565975289 0.49500917262 0.8473234775 0.53495505636 0.27833516312 0.071442191035 
0.081226500406 0.095471214276 0.10313044662 0.12687776281 0.15258714945 0.10819752196 0.073574506635 0.06321921036 0.089006852996 
0.20146067448 1.4700013722 0.62186123858 0.63887790959 0.611755041 0.3720800784 0.7656534752 0.74746711169 0.82517535185 
0.58057391915 0.56188349635 0.66733386295 0.49830727117 0.72437053195 0.61788367516 0.58836319656 0.56670461238 0.56205288206 
0.54381000468 0.24953270805 0.39950900707 0.55707591026 0.55707591026 0.55707591026 0.53892418099 0.52181129088 0.57706475686 
0.53595246777 0.55513190944 0.56897660879 0.59786915025 0.52181129088 0.50565975289 0.26711799564 0.53892418099 0.53892418099 
0.53595246777 0.53595246777 0.55378470983 0.49039852897 0.53495505636 0.24090531304 0.2534129325 0.30027597787 1.472204703 
1.4023236994 1.4376370925 0.65863711024 0.35163447259 0.21541928183 0.27949897793 0.35388222922 0.43935528955 0.53652231989 
0.27960762505 0.56532505689 1.4626987963 1.5292415924 1.4874785138 1.623859634 1.4701244995 1.514907691 1.1488745412 
0.79147885332 0.87562579579 1.2339455336 0.54381000468 0.50565975289 1.3583216288 0.71880864917 0.77410034265 0.79059749465 
1.5253730474 1.4758446205 1.4219063792 1.041549546 0.51445131306 0.4808872802 0.4808872802 0.463647609 0.4297622791 
1.2151604425 1.1441688337 1.0691922726 1.8971242461 1.6199208728 1.5191829619 1.5860305606 1.5745861902 1.1030876745 
0.98163093712 0.9670344806 0.94866470793 0.78367757091 0.79513511038 0.5264409146 0.51741917503 0.69939076551 0.68857166789 
0.68857166789 0.67938711488 0.56040482302 0.7255649817 0.70254347507 0.70607378485 0.063597833847 0.80800692013 0.78578874715 
0.69512248399 0.69512248399 0.26655785109 0.059176460083 0.22107770804 0.30651488081 0.048561828307 0.13047168463 0.4030620441 
0.62812738012 0.802766125 0.78054381369 0.68903880401 0.62812738012 0.70289386834 0.68398715622 0.66610526494 0.58977016536 
0.56503741016 0.55464942542 0.56016737473 0.55549844895 0.74797594995 0.76463354685 0.76238124386 0.76653792829 0.75371776189 
0.79955278072 0.77763205539 0.7569420676 0.73744335775 0.65777638631 0.72478279925 0.72957733881 0.73494233208 0.72167843634 
0.71025942925 0.64892928293 0.65875555341 0.67020891722 0.68372296567 0.68392674771 0.81192103007 0.83255635352 0.83248713507 
1.6800884825 1.7497522383 1.4423539202 1.4244639064 1.4151901524 1.3070666235 0.43704195809 0.26799861096 0.24231304469 
0.55668440551 0.53694315065 1.6051944151 0.66293312501 0.72440207871 0.91685668833 0.88630828996 0.85604056074 0.83237883343 
0.60366057065 0.89055467114 0.96651907774 0.54516376132 0.68077555194 0.54786362833 0.65239646709 0.49039852897 0.38998317527 
1.5707963268 0.63384520414 0.88630828996 0.34762889371 0.21238920534 0.89392328835 0.76812815733 0.42297011745 1.4184382473 
1.584821749 0.85604056074 0.85604056074 1.0399200463 0.56068472529 0.95066165566 0.62831157207 0.84465384053 0.71740710492 
0.89012578746 1.7944613358 0.83237883343 0.83237883343 0.79169508714 0.92554011649 0.7411032609 0.73345196545 0.40032407665 
0.94952910942 0.58657849124 1.0512907055 0.71740710492 0.39182161781 1.3291919787 0.80233266462 0.44483638676 0.40013404295 
0.4856431454 0.63673150612 0.85502972992 0.56769818553 1.0190685107 0.39943953917 0.802766125 0.56746290519 0.42089807238 
0.40394906975 0.39845248382 0.37138412592 0.39705814417 0.36431318735 0.36795471442 0.43311646117 0.40681560782 0.40960181077 
0.40850180872 0.37600717817 0.35385396236 0.40707935075 0.37096346664 0.3482788709 0.32376980085 0.2987082096 0.1540414215 
0.098499159601 0.10898071691 0.074060159587 0.21409099289 0.85152790584 0.46822479866 0.39358826162 0.82941773537 0.37480391199 
1.2830294341 0.89012578746 1.5707963268 0.77289118478 0.72517884102 0.65485704582 0.83082144282 0.80864978621 0.7853981634 
1.8692952584 2.3086113869 0.9944269366 1.1106335724 1.6051944151 1.5353555011 0.73960833288 0.61171864296 0.56934343416 
0.57016062857 0.61251466922 0.44358970637 0.69453409871 0.63470696601 0.67474094222 1.417873488 0.6595313679 0.133304469 
0.23822211473 0.70457987618 0.86254017678 0.76386412385 0.85780164605 0.83119880408 0.51716787746 0.79172712562 0.37531789722 
0.55548205323 0.34936636705 0.25125672684 0.27522597386 0.28931868175 0.23142252467 0.23450344238 0.2387668775 0.30567716776 
0.30567716776 0.3359854701 0.3359854701 0.46653390564 0.47638881207 0.48736462319 0.42074456177 0.42074456177 0.38827369006 
0.37968012235 0.41853639573 0.39098889625 0.39726563386 0.37278954485 0.3458889315 0.34496077753 0.34983597606 0.36071665164 
0.43754835333 0.4654385064 0.27020329329 0.27599362202 0.29316270681 0.32219168079 0.19887348854 0.17875600913 0.16710636584 
0.17620583786 0.67858637725 0.65788974223 0.63824527241 0.53892418099 0.53892418099 0.66326060426 1.4397761034 1.4743984082 
1.4470592505 1.4379465513 1.568080162 1.6183565193 1.79089868 0.44039598619 0.63779899418 0.35457614104 0.21139765564 
0.29909452074 0.41865072299 0.51335452615 0.62994959813 0.56115200618 0.68153611608 0.71706754238 0.73870998724 0.71745741492 
0.72784708399 0.67451465995 1.4086985486 1.3770195945 0.27416745112 0.73781506012 0.69044645705 0.66963894568 0.094951706343 
0.44546779393 0.36520144979 0.30227249858 0.52759023848 0.62209290714 0.56899522705 0.38541484008 0.56790306145 0.73046371559 
0.73779879858 0.21200678078 0.78578874715 0.21667028098 0.35219799497 0.2475626367 0.59909398119 0.59909398119 0.43469638938 
0.38541484008 0.54108991183 0.74604475266 0.6779079519 0.66823821295 0.58073527174 0.59203153409 0.52653407081 0.53602433504 
0.54761817065 0.69512248399 0.07677189127 0.54041950027 0.18025438171 0.58310073471 0.57743049019 0.37520318778 0.402895655 
0.72334383135 0.55473588886 0.68231065457 0.87188718656 0.53742838111 0.53662232382 0.54877130667 0.55508575426 0.37995755628 
0.39724107442 0.42211216892 0.45204923514 0.5098729565 0.63093254577 0.13495552943 0.17099789626 0.18880483697 0.16347611389 
0.55230838259 0.43469638938 0.55386934567 0.68903880401 0.68903880401 0.68903880401 0.43837156004 2.1319538279 2.0953563874 
2.9423592605 0.15518724432 0.15518724432 0.14164217563 0.41541173188 0.41519243242 0.21232184044 0.39725760729 0.68436300623 
0.73122309129 0.74689777742 0.79263954801 0.81043470767 0.87132716619 0.89153183226 0.96206292748 0.98492051105 1.0095519067 
1.0766070124 1.1051854507 1.1787416491 1.2006910711 1.1033752771 1.1327559352 0.77724070099 0.70805251814 0.72216420773 
0.58724008635 0.61572100502 0.63719966985 0.68371357554 0.79562650093 0.76314725032 0.98287731812 0.69512248399 1.684933482 
1.8913868577 1.8535511417 1.7029777553 2.0808979041 2.0372742165 1.8913701366 1.9719944844 2.2191940301 2.4437118922 
0.41541173188 0.16739859743 0.4297622791 0.3947911197 1.1659045405 0.30970294454 0.27300870309 0.23554498072 0.19739555985 
0.18998828792 0.1526493284 0.11487660542 0.11065722117 0.073939037658 0.037020115874 0 0 0.20927955045 
0.10673567265 0.1418970546 0.13706617431 0.17073521148 0.16514867741 0.15991312316 0.15499674192 0.21687989283 0.21050307143 
0.20448543198 0.61072596439 0.61072596439 0.61072596439 0.61561988943 0.61561988943 0.26625204915 0.58800260355 0.2325569418 
0.5543074962 0.20487671704 0.28164860831 0.20487671704 0.32923171158 0.16941304389 0.49116359829 0.463647609 0.75837771421 
0.59691105385 0.68295430989 0.3217505544 0.61414446779 0.55323714117 0.60096004458 0.63363207945 0.59264233435 0.67642166349 
0.67773332161 0.83132254162 0.34048617411 0.11794848642 0.32052405933 0.12674148163 0.60827112405 0.56438916453 0.70304197864 
0.68297986331 0.65887557108 0.61528258456 0.5897431465 0.27609810516 1.1077390999 1.2512760097 0.41822432958 0.38050637711 
0.41822432958 0.40489178629 0.37433361601 0.37433361601 0.34302394042 0.34302394042 0.31099828061 0.30092023436 0.26916749279 
0.26916749279 0.23684876095 0.23684876095 1.0146300967 0.95471330766 0.95713963215 0.88251431139 0.52244088942 0.78365302345 
0.31691987837 0.25886101217 0.32923003627 0.39740503477 0.39496605423 0.40525024267 0.45052450994 0.43854970367 0.42521087408 
0.27870471346 0.35960894486 0.38217930504 0.38217930504 0.38217930504 0.38217930504 0.38217930504 0.38217930504 0.38217930504 
0.38217930504 0.93549133739 0.76179540207 0.74945224295 0.60420593597 0.72361547788 0.46151358309 0.68673702154 0.82387240395 
0.86976820568 1.1681278171 0.71354627207 0.8313312364 0.80867314606 0.61198477312 0.60205393146 0.50454851002 0.53700849454 
0.49677394756 0.54169754034 0.49620016872 0.49889956576 0.43091390236 0.36168748229 0.2744364799 0.39372938901 0.34362190627 
1.1479504063 1.8536422065 1.825787984 1.7950429159 0.99934564749 0.88449121081 0.67055779678 0.42722420818 1.5160846846 
1.5017033671 1.4596797438 1.4163941183 1.3077668272 1.3158046696 1.2755730107 1.2363018011 0.52452985592 0.4288865886 
0.47020542148 0.44221852042 0.40278482365 0.25526531253 0.09093300203 0.065083931191 0.10192247428 0.045186100405 0.26934114353 
0.11615810295 0.26934114353 0.29112193961 0.30658499029 0.31001669476 0.31403633319 0.30658499029 0.30710941751 0.33813650018 
0.30710941751 0.3307018229 0.41715180087 0.44099226709 0.46629304471 0.28477440562 0.32862062855 0.35972447951 0.46697632826 
0.47459646554 0.27982554046 0.30147300925 0.33782478287 0.17012397121 0.3018779932 0.10902920013 0.15023095061 0.16060452066 
0.22479601819 0.08348724532 0.17899856418 0.21831699471 0.14320647827 0.10179151966 0.26807978015 0.88044100303 0.69512248399 
1.8122302292 1.6526917508 0.84373371719 0.13363177731 0.14409716552 0.13276332372 0.39805367407 0.17569650371 0.38054924441 
0.56367499446 0.69474418078 0.41519243242 0.46465705391 0.52471956404 0.64886386869 0.72515519287 0.86534966598 0.6523071119 
0.44244603425 0.53017276605 0.38301233226 0.78413908854 1.4738066042 1.4100373186 1.2662854436 1.2315037123 0.972461475 
0.38512300744 0.24151397729 1.6708062666 0.75189492567 0.8542656685 0.57918154063 0.47057148066 0.97285695522 0.58387039566 
0.36843353209 0.38239334172 0.31456183466 0.38724206092 0.68180560822 0.78054381369 0.68903880401 0.70230378302 0.59684103969 
0.61482569754 0.60029793866 0.86972864208 1.0475180047 0.59087845982 0.38247720493 0.43469638938 0.84338411891 0.49606472562 
0.42921982791 1.1169900867 0.60029793866 0.57776272566 1.1431866502 1.3720457752 0.84635650513 0.98123626733 0.48958083995 
0.48907221592 0.54158922123 0.5758929018 0.56462166435 0.47885834031 0.42868441516 0.2090333071 0.36831971 0.42898018798 
0.15849526722 0.13557946834 0.25003006359 0.11050609545 0.026049442996 0.041725989009 0.019418861046 0.074872442081 0.13065901236 