# vtk DataFile Version 5.1
vtk output
ASCII
DATASET POLYDATA
POINTS 3553 double
6.2100002468 37.800001502 124.5 6.2100002468 37.800001502 125 6.2100002468 37.800001502 125.5 
6.2100002468 37.800001502 126 6.2100002468 37.935001507 124 6.2100002468 38.070001513 123.5 
6.3450002521 37.800001502 126.5 6.3450002521 37.800001502 127 6.3450002521 38.070001513 118.5 
6.3450002521 38.070001513 119 6.3450002521 38.070001513 119.5 6.3450002521 38.070001513 120 
6.3450002521 38.070001513 120.5 6.3450002521 38.070001513 121 6.3450002521 38.070001513 121.5 
6.3450002521 38.070001513 122 6.3450002521 38.070001513 122.5 6.3450002521 38.070001513 123 
6.3450002521 38.205001518 117 6.3450002521 38.205001518 117.5 6.3450002521 38.205001518 118 
6.3450002521 38.205001518 118.5 6.3450002521 38.205001518 119 6.4800002575 37.800001502 127.5 
6.4800002575 37.800001502 128 6.4800002575 37.800001502 128.5 6.4800002575 37.800001502 129 
6.4800002575 38.340001523 116.5 6.6150002629 37.935001507 129.5 6.6150002629 38.340001523 114.5 
6.6150002629 38.340001523 115 6.6150002629 38.340001523 115.5 6.6150002629 38.340001523 116 
6.6150002629 38.475001529 113 6.6150002629 38.475001529 113.5 6.6150002629 38.475001529 114 
6.7500002682 37.935001507 129.5 6.7500002682 38.205001518 108 6.7500002682 38.475001529 112.5 
6.8850002736 37.935001507 130 6.8850002736 38.340001523 101.5 6.8850002736 38.340001523 102 
6.8850002736 38.340001523 102.5 6.8850002736 38.340001523 103 6.8850002736 38.340001523 103.5 
6.8850002736 38.340001523 104 6.8850002736 38.340001523 104.5 6.8850002736 38.340001523 105 
6.8850002736 38.340001523 105.5 6.8850002736 38.340001523 106 6.8850002736 38.340001523 106.5 
6.8850002736 38.340001523 107 6.8850002736 38.340001523 107.5 6.8850002736 38.340001523 108 
6.8850002736 38.340001523 108.5 6.8850002736 38.475001529 108.5 6.8850002736 38.475001529 109 
6.8850002736 38.475001529 109.5 6.8850002736 38.475001529 110 6.8850002736 38.475001529 110.5 
6.8850002736 38.475001529 111 6.8850002736 38.475001529 111.5 6.8850002736 38.475001529 112 
7.0200002789 38.070001513 130.5 7.0200002789 38.070001513 131 7.0200002789 38.070001513 131.5 
7.0200002789 38.070001513 132 7.0200002789 38.205001518 131.5 7.0200002789 38.205001518 132 
7.0200002789 38.205001518 132.5 7.0200002789 38.205001518 133 7.0200002789 38.340001523 134.5 
7.0200002789 38.340001523 135 7.0200002789 38.340001523 135.5 7.0200002789 38.340001523 136 
7.1550002843 38.340001523 133.5 7.1550002843 38.340001523 134 7.1550002843 38.340001523 134.5 
7.1550002843 38.340001523 135 7.1550002843 38.340001523 135.5 7.1550002843 38.340001523 136 
7.1550002843 38.475001529 136.5 7.1550002843 38.475001529 137 7.1550002843 38.475001529 137.5 
7.1550002843 38.475001529 138 7.1550002843 38.475001529 138.5 7.2900002897 38.610001534 139 
7.2900002897 38.610001534 139.5 7.2900002897 38.610001534 140 7.2900002897 38.610001534 140.5 
7.2900002897 38.610001534 141 7.2900002897 38.74500154 141.5 7.2900002897 38.74500154 142 
7.425000295 38.880001545 142.5 7.425000295 39.01500155 143 7.5600003004 39.150001556 143 
7.5600003004 39.150001556 143.5 7.5600003004 39.150001556 144 7.5600003004 39.285001561 143.5 
7.5600003004 39.285001561 144 7.5600003004 39.285001561 144.5 7.5600003004 39.420001566 144 
7.5600003004 39.420001566 144.5 7.5600003004 39.420001566 145 7.5600003004 39.555001572 145 
7.6950003058 39.420001566 151 7.6950003058 39.420001566 151.5 7.6950003058 39.420001566 152 
7.6950003058 39.555001572 149 7.6950003058 39.555001572 149.5 7.6950003058 39.555001572 150 
7.6950003058 39.555001572 150.5 7.6950003058 39.555001572 151 7.6950003058 39.555001572 151.5 
7.6950003058 39.555001572 152 7.6950003058 39.555001572 152.5 7.6950003058 39.690001577 145.5 
7.6950003058 39.690001577 148.5 7.6950003058 39.825001583 146 7.6950003058 39.825001583 146.5 
7.6950003058 39.825001583 147 7.6950003058 39.825001583 147.5 7.6950003058 39.825001583 148 
7.8300003111 39.690001577 153 7.8300003111 39.690001577 153.5 7.8300003111 39.690001577 154 
7.8300003111 39.690001577 154.5 7.8300003111 39.690001577 155 7.8300003111 39.825001583 155 
7.8300003111 39.825001583 155.5 7.8300003111 39.960001588 154.5 7.9650003165 39.825001583 155.5 
7.9650003165 39.825001583 156 7.9650003165 40.095001593 154.5 7.9650003165 40.230001599 154.5 
7.9650003165 40.365001604 154.5 7.9650003165 40.500001609 154.5 7.9650003165 40.635001615 154.5 
7.9650003165 40.77000162 154.5 7.9650003165 40.905001625 154.5 7.9650003165 41.040001631 154.5 
7.9650003165 41.175001636 154.5 7.9650003165 41.310001642 154.5 7.9650003165 41.445001647 154.5 
7.9650003165 41.580001652 154.5 7.9650003165 41.715001658 154.5 8.1000003219 39.825001583 156 
8.1000003219 39.825001583 156.5 8.1000003219 39.825001583 157 8.1000003219 39.825001583 157.5 
8.1000003219 41.850001663 154.5 8.2350003272 39.825001583 158 8.3700003326 39.690001577 158.5 
8.505000338 39.555001572 159 8.6400003433 39.420001566 159 8.7750003487 39.420001566 159 
8.9100003541 39.420001566 159 9.0450003594 39.420001566 159 9.1800003648 39.285001561 158.5 
9.1800003648 39.285001561 159 9.3150003701 39.150001556 159 9.3150003701 39.150001556 159.5 
9.4500003755 39.150001556 159.5 9.4500003755 39.150001556 160 9.5850003809 39.150001556 159.5 
9.5850003809 39.150001556 160 9.7200003862 39.01500155 159.5 9.7200003862 39.01500155 160 
9.8550003916 38.880001545 159.5 9.8550003916 38.880001545 160 9.990000397 38.880001545 159.5 
9.990000397 38.880001545 160 10.125000402 38.880001545 159.5 10.125000402 38.880001545 160 
10.260000408 38.74500154 159.5 10.260000408 38.74500154 160 10.395000413 38.610001534 160 
10.395000413 38.610001534 160.5 10.530000418 38.610001534 160.5 10.665000424 38.610001534 160.5 
10.800000429 38.610001534 161 10.935000435 38.610001534 161.5 11.07000044 38.610001534 162 
11.205000445 38.610001534 162 11.340000451 38.610001534 162 11.475000456 38.475001529 162 
11.610000461 38.475001529 162 11.745000467 38.475001529 162 11.880000472 38.475001529 162 
12.015000477 38.475001529 162 12.150000483 38.475001529 162 12.285000488 38.340001523 162.5 
12.285000488 38.340001523 163 12.420000494 38.205001518 162.5 12.420000494 38.205001518 163 
12.420000494 51.705002055 122.5 12.420000494 51.705002055 123 12.420000494 51.705002055 123.5 
12.420000494 51.705002055 124 12.420000494 51.84000206 122.5 12.420000494 51.84000206 123 
12.420000494 51.84000206 123.5 12.420000494 51.84000206 124 12.555000499 38.070001513 162.5 
12.555000499 38.070001513 163 12.555000499 51.435002044 132 12.555000499 51.570002049 131.5 
12.555000499 51.705002055 122 12.555000499 51.705002055 131 12.555000499 51.84000206 121.5 
12.555000499 51.84000206 122 12.555000499 51.84000206 124.5 12.555000499 51.84000206 125 
12.555000499 51.84000206 126.5 12.555000499 51.84000206 127 12.690000504 38.070001513 163 
12.690000504 38.070001513 163.5 12.690000504 51.300002038 132.5 12.690000504 51.300002038 133 
12.690000504 51.435002044 130.5 12.690000504 51.435002044 131 12.690000504 51.435002044 131.5 
12.690000504 51.435002044 132 12.690000504 51.435002044 133 12.690000504 51.570002049 129.5 
12.690000504 51.570002049 130 12.690000504 51.570002049 131.5 12.690000504 51.705002055 128 
12.690000504 51.705002055 131 12.690000504 51.84000206 120.5 12.690000504 51.84000206 121 
12.690000504 51.84000206 121.5 12.690000504 51.84000206 125.5 12.690000504 51.84000206 126 
12.690000504 51.84000206 126.5 12.690000504 51.84000206 127 12.690000504 51.84000206 127.5 
12.690000504 51.84000206 128 12.82500051 37.935001507 163.5 12.82500051 37.935001507 164 
12.82500051 51.030002028 137.5 12.82500051 51.030002028 138 12.82500051 51.030002028 138.5 
12.82500051 51.030002028 139 12.82500051 51.030002028 139.5 12.82500051 51.030002028 140 
12.82500051 51.030002028 140.5 12.82500051 51.030002028 141 12.82500051 51.165002033 133.5 
12.82500051 51.165002033 134 12.82500051 51.165002033 134.5 12.82500051 51.165002033 135 
12.82500051 51.165002033 135.5 12.82500051 51.165002033 136 12.82500051 51.165002033 136.5 
12.82500051 51.165002033 137 12.82500051 51.300002038 133.5 12.82500051 51.570002049 128.5 
12.82500051 51.570002049 129 12.82500051 51.705002055 128.5 12.82500051 51.975002065 119.5 
12.82500051 51.975002065 120 12.82500051 51.975002065 121 12.960000515 37.935001507 164 
12.960000515 51.030002028 137.5 12.960000515 51.030002028 138 12.960000515 51.030002028 138.5 
12.960000515 51.030002028 139 12.960000515 51.030002028 139.5 12.960000515 51.030002028 140 
12.960000515 51.030002028 140.5 12.960000515 51.030002028 141 12.960000515 51.165002033 134 
12.960000515 51.165002033 134.5 12.960000515 51.165002033 135 12.960000515 51.165002033 135.5 
12.960000515 51.165002033 136 12.960000515 51.165002033 136.5 12.960000515 51.165002033 137 
12.960000515 51.165002033 141.5 12.960000515 51.165002033 142 12.960000515 52.110002071 117 
12.960000515 52.110002071 117.5 12.960000515 52.110002071 118 12.960000515 52.110002071 118.5 
12.960000515 52.110002071 119 13.09500052 37.800001502 164 13.09500052 51.165002033 142 
13.09500052 51.165002033 142.5 13.09500052 52.110002071 116.5 13.230000526 37.800001502 164 
13.230000526 51.030002028 147 13.230000526 51.030002028 147.5 13.230000526 51.030002028 148 
13.230000526 51.030002028 150.5 13.230000526 51.030002028 151 13.230000526 51.030002028 151.5 
13.230000526 51.030002028 152 13.230000526 51.030002028 152.5 13.230000526 51.030002028 153 
13.230000526 51.030002028 153.5 13.230000526 51.030002028 154 13.230000526 51.165002033 142.5 
13.230000526 51.165002033 143 13.230000526 51.165002033 143.5 13.230000526 51.165002033 144 
13.230000526 51.165002033 144.5 13.230000526 51.165002033 145 13.230000526 51.165002033 145.5 
13.230000526 51.165002033 146 13.230000526 51.165002033 146.5 13.230000526 51.165002033 147 
13.230000526 51.165002033 147.5 13.230000526 51.165002033 148 13.230000526 51.300002038 147 
[...]
CELL_DATA 3552
SCALARS angle%0A[rad] double
LOOKUP_TABLE default
0 1.0583347115 1.1272264844 0.9515821148 0.81087703347 0.69973841704 0.72663840319 0.8005073572 0.72912425774 
0.66669257362 0.6177203898 0.65322790205 0.611755041 0.52312814087 0.56814602396 0.42597188687 0.6045214334 0.63887790959 
0.54668810142 0.68427610842 0.64690474449 0.18700448323 0.56188349635 0.57753888359 0.66294178127 0.66294178127 0.63461733578 
0.57969503375 0.73258062837 0.66704078349 0.64013176667 0.63461733578 0.55548205323 0.57740305379 0.83577742165 0.69791489912 
0.64638508156 0.62209290714 0.69212694148 0.67130465249 0.50223592994 0.50223592994 0.47826483651 0.45573481557 0.45573481557 
0.45573481557 0.4357840853 0.34737761718 0.32491203587 0.30409960895 0.30409960895 0.99302854187 0.20945522109 0.3560206994 
0.23827788166 0.25570391499 0.34068660065 0.7479844988 0.24953720234 0.23757708361 0.22782087515 0.127729069 0.1162788849 
0.1162788849 0.1162788849 0.10869136042 0.82400183816 0.86457303495 0.90799264537 0.95438197683 1.0038273536 1.0563661345 
1.1119713916 1.1095668409 1.1066364557 1.1047525888 1.1092369861 0.97560143473 0.9803657461 0.98916856821 1.0154206033 
1.0354789808 1.0497468782 0.96740375594 0.9906985749 0.90685147678 0.84888765592 0.77015782391 0.72561279241 0.84497960296 
1.0092433309 1.2334742638 1.5707963268 0.35284412428 0.28922089294 0.28300250801 0.27617342997 0.26187365581 0.26072119238 
0.25822220473 0.24695732649 0.24697075041 0.27180349762 0.34413666632 0.50135518164 0.47321078595 0.52463370894 0.39498077688 
0.11101799139 0.27913229157 0.26706132453 0.21252480811 0.17473147672 0.13915779827 0.1122732146 0.045315241894 0.080515547805 
0.20721696046 0.46839449866 0.65068552783 0.87353059609 0.19175655574 0.38429453785 0.38429453785 0.38429453785 0.38429453785 
0.35836239817 0.32241182301 0.29630681749 0.25935446316 0.25817755839 0.40009844231 0.52947363337 0.4227871499 0.39633618897 
0.37174879142 0.36154314682 0.35022025133 0.33760463629 0.32349131384 0.2907818048 0.27178103036 0.25021695947 0.21009186738 
0.16183411081 0.13066220634 0.10467910099 0.10973325373 0.17780983529 0.49039852897 0.38326427964 0.38326427964 0.38326427964 
0.3105605363 0.36887756197 0.066587140073 0.62164312209 0.51889623698 0.50280129261 0.48759626944 0.47321582555 0.36723912997 
0.6596594507 0.43007380029 0.13992399427 0.21475665574 0.30102360964 0.3991492889 0.50913983524 0.62999607699 0.51755988076 
0.38496401038 0.96391573918 0.93835720461 0.91372137187 0.83798120525 0.81366824497 0.79042322686 0.57084726399 0.46865160782 
0.84499847861 0.84795774303 0.85196875901 0.83545211836 0.82328234288 0.81713730939 0.69646464799 0.69494182449 0.63658802456 
0.55168629161 0.60366057065 0.79671766734 0.35054715648 0.43635138844 0.1079017964 0.62934910023 0.56609422945 0.73565247875 
0.48355515654 0.35935048488 0.15650584252 0.060198654872 0.13315554781 0.21706143101 0.2542213148 0.23072750861 0.18070079577 
0.17023305761 0.17628487919 0.20150120644 0.30238316504 0.35054022289 0.42861042943 0.37893484128 0.29223673835 0.99875664775 
0.54786583736 0.51095587482 0.93641642312 0.85093340995 0.85677651765 0.91127044332 0.8147904128 0.4421937582 0.47188491976 
0.38809498477 0.29371906208 0.3257579268 0.39507954811 0.4389981011 0.48859219539 0.55343274884 0.59848743587 0.67745241776 
0.7359045808 0.63832031624 0.42695997199 0.18157473829 0.324772993 0.31287908624 0.20974183377 0.1243408993 0.13561634091 
0.29096147926 0.13464622533 0.13464622533 0.13464622533 0.13464622533 0.097195734459 0.026983613979 0.027149560348 0.027813352647 
0.040219610243 0.11802559297 0.17012914344 0.19950914863 0.24800637679 0.3422497229 0.38429210927 0.26505775269 0.13606011263 
0.08444286181 0.059519586212 0.05294737043 0.10582465127 0.16686990396 0.16686990396 0.21365411996 0.18434451508 0.14879442533 
0.11579531741 0.080126569309 0.15615398149 0.12016592259 0.097044096901 0.060300643582 0.015023871296 0.019251280618 0.020085334068 
0.026915082233 0.042471724507 0.071951149284 0.17061961929 0.060300643582 0.084638093885 0.11010708726 0.11010708726 0.13342088211 
0.13342088211 0.096590337566 0.060000296252 0.059758297912 0.15576179238 0.17938268525 0.15657771619 0.15657771619 0.18959252715 
0.18959252715 0.21598026638 0.21598026638 0.18019396265 0.13472222492 0.083959006493 0.10287410066 0.060300643582 0.060300643582 
0.053947605782 0.053947605782 0.060300643582 0.060300643582 0.060300643582 0.026915082233 0.060086542873 0.085079281462 0.060230578582 
0.085079281462 0.084638093885 0.060300643582 0.1107449372 0.060191309939 0.026915082233 0.026915082233 0.026915082233 0.026915082233 
0.080706476945 0.0809272805 0.055521441212 0.06838526669 0.12016592259 0.085174925961 0.060300643582 0.060300643582 0.060300643582 
0.060300643582 0.060318182082 0.060318182082 0.060300643582 0.038165226606 0.32084006348 0.38787115654 0.084638093885 0.085174925961 
0.02699344294 0.02699344294 0.02699344294 0.02699344294 0.02699344294 0.02699344294 0.02699344294 0.02699344294 0 
0 0 0.042471724507 0.076219594234 0.076219594234 0.076219594234 0.38570780206 0.2382227218 0.21146365257 
0.15347190316 0.2382227218 0.1848348924 0.088278801103 0.11405416391 0.11405416391 0.32708307781 0.19651677643 1.0201485394 
1.2456487306 1.4887505514 1.4353338687 1.4075524007 1.4054548659 1.3781104761 1.3514584069 1.3256891031 1.2945572321 
1.2678990096 1.2437771586 1.2239645537 1.1859334668 1.1926512623 1.2793659476 0.59687044942 0.49097079271 0.441790641 
0.26068755889 0.52608767728 0.97216361023 0.92505122048 0.87475996001 0.96169119358 0.96169119358 0.46785181703 0.6729777413 
0.35446051617 0.80534527679 0.77200648415 0.79128198069 0.84528068092 0.44142904367 0.27632727498 0.066568163776 0.57693294502 
0.52958959878 0.6947382762 0.66963894568 0.64350110879 0.62402305298 0.59717665809 0.6356653094 0.42351208646 0.34621978883 
0.25349603202 0.59589990378 0.57174614516 0.54714739286 0.50603018903 0.48132851078 0.99731768194 0.79792888772 0.86004092313 
1.0291699292 0.98195247877 0.93775437032 0.89363209969 0.84960942534 0.77092293819 0.7583536873 0.74953554265 0.77552959314 
0.71637399766 0.68650637991 0.68538946548 0.67833447969 0.69276203018 0.71998480134 0.67671417232 1.026131984 0.72193081566 
0.66980898085 0.61905895531 0.57002603242 0.55002200123 0.53124316541 0.51359241213 0.46719661874 0.18691622304 0.057407570118 
0.30175319658 0.35613557861 0.38145133609 0.41380681725 0.38407214897 0.37422895954 0.36332528154 0.33381229272 0.31011261212 
0.29572499607 0.29624043456 0.29641031985 0.33826268091 0.38339659499 0.45926982068 0.5816090242 0.64167370127 0.61370922666 
0.71333047782 0.63710293257 0.40007055973 0.28295884886 0.31268101245 0.45804094419 0.72851235122 0.089732693172 0.16417179939 
0.22025186705 0.2323944255 0.27378236533 0.37855943371 0.45828314209 0.60130740065 0.76095399859 0.74233653776 0.25065601532 
0.98720644765 0.79878970912 0.80568638201 0.68887952748 0.68769588843 0.4029130149 0.60089850933 0.35997635089 0.90100481451 
0.052236049593 0.16765091807 0.13503772796 0.12314538465 0.35134075329 0.27659504175 0.22544332478 0.14871625954 0.14132763771 
0.16986956999 0.15760249462 0.26675678129 0.35028976529 0.2389564427 0.34073349994 0.40938495378 0.54598250551 0.46242410706 
0.066503378116 0.24554694063 0.29857739698 0.32927427317 0.38926629674 0.50433623534 0.54350171795 0.56394355 0.60278300775 
0.66040014083 0.61470617549 0.47852259464 0.53170260555 0.55182178916 0.47671105481 0.5946961968 0.42673016198 0.43517333945 
0.45457364824 0.27974267048 0.30898644727 1.1895981831 0.13967873604 0.14567734044 0.14567734044 0.23645505073 0.086421022223 
0.079105129493 0.19989353676 0.2258104479 0.2675415651 0.23880214067 0.23815330677 0.2155602974 0.21102350594 0.21380772059 
0.22837267673 0.21462993698 0.17942207389 0.14457923312 0.1204354593 0.097195734459 0.10781699324 0.11111073531 0.11402104617 
0.091723986977 0.070875378273 0.076847555213 0.085311065802 0.098161356966 0.02699344294 0.02699344294 0.02699344294 0.38429210927 
0.02699344294 0.02699344294 0.02699344294 0.02699344294 0.02699344294 0.02699344294 0.038165226606 0.038165226606 0.038165226606 
0.038165226606 0.17809294516 0.26371184446 0.23671840152 0.026954162841 0.097138799067 0.097138799067 0.097138799067 0.097138799067 
0.097138799067 0.098832512117 0.1010340937 0.10399327003 0.053947605782 0.02699344294 0.02699344294 0.02699344294 0.02699344294 
0.02699344294 0.10918356136 0.17061961929 0.060300643582 0.21146365257 0.072436691647 0.08082346502 0.095153700487 0.12172801832 
0.18014091779 0.30141709415 0.13130763869 0.22373423051 0.18288829416 0.11657000737 0.097141387889 0.10519033592 0.12071212342 
0.15652408488 0.060300643582 0.11119839712 0.15062585505 0.17267017504 0.060300643582 0.15760634395 0.17877760359 0.21774197333 
0.19003478073 0.31765945024 0.1204354593 0.14481120408 0.188136339 0.31876237265 0.2164722586 0.10774762987 0.12109199984 
0.19054454292 0.26929002026 0.32872661563 0.1717879914 0.085174925961 0.22373423051 0.29810314132 0.76975702855 0.64354107117 
0.67454073654 0.26371184446 0.23671840152 0.025734784899 0.039984864823 0.075834365359 0.067008646911 0.056517905811 0.059866843129 
0.21146365257 0.1848348924 0.31753735361 0.11675162068 0 0 0.053947605782 0.076288829507 0.076288829507 
0.076288829507 0.076288829507 0.076288829507 0.078436639551 0.081196438875 0.084854630116 0.02699344294 0 0.02699344294 
0.02699344294 0.02699344294 0.02699344294 0.19054454292 0.096796259653 0.084931549555 0.082093378409 0.047086354666 0.042271231424 
0.085174925961 0.085174925961 0.085174925961 0.085174925961 0.085174925961 0.060300643582 0.36475182886 0.075834365359 0.096774483767 
0.096774483767 0.038026843819 0.034064803612 0.047086354666 0.042271231424 0.035853886666 0.026875944521 0.013425783915 0.035810571956 
0.10719529028 0.23671840152 0.041484613207 0.02840972294 0.038137461491 0.048582182906 0.068312304488 0.11052671408 0.060300643582 
0.037951058558 0.075629296546 0.075629296546 0.059710248846 0.090204454499 0.076173564415 0.094012790653 0.063804048343 0.095249938668 
0.095384107305 0.15525143215 0.058910677785 0.23265268364 0.13418873322 0.13418873322 0.088278801103 0.11374613158 0.097044096901 
0.076067713233 0.060230578582 0.060230578582 0.076288829507 0.076288829507 0.040347093069 0.043203794381 0.070875378273 0.076847555213 
0.060318182082 0.072594773962 0.093718826816 0.13686081664 0.02699344294 0.053986885881 0 0 0 
0 0.02699344294 0.02699344294 0.02699344294 0.02699344294 0 0 0.038165226606 0.038165226606 
0.042400980167 0.047693514337 0.047059177728 0.052444497769 0.060318182082 0.072594773962 0.093718826816 0.13686081664 0.038165226606 
0.032421929301 0.038137461491 0.048582182906 0.053947605782 0.053947605782 0.053947605782 0.076274922981 0.076274922981 0.076274922981 
0.053927990711 0.053927990711 0.026944376732 0.026944376732 0.038137461491 0.038137461491 0.038371850071 0.039309161977 0.041484613207 
0.045811991167 0.026954191393 0.030122938768 0.060300643582 0.060300643582 0.038165226606 0.11033016177 0.10715681858 0.10715681858 
0.075999157667 0.084767641101 0.12352978717 0.13382005364 0.098964517778 0.11068825619 0.12737799589 0.22521591433 0.20783176403 
0.19229403557 0.053947605782 0.053947605782 0.02699344294 0.02699344294 0.02699344294 0.19616911702 0.13681347087 0.13681347087 
0.71184418871 0.77451285279 0.31776561902 0.56939239406 0.96270934602 0.93887604341 0.91678507329 0.84499847861 0.82720750026 
0.81445584228 0.76637401063 0.68202862305 0.71093935506 0.71093935506 0.71093935506 1.2531153 0.3547719505 1.2602882364 
1.2340685535 0.47012592422 1.2602882364 1.2340685535 1.208321402 1.3487082068 0.95890874215 1.0182481666 1.4864794968 
1.4857687365 1.4664121807 1.4269109239 1.4625795201 1.426659598 0.21109912067 0.1124290268 0.28853223462 0.15615398149 
0.12016592259 1.4032829904 1.3851951562 1.3646139239 2.8071809179 2.6997645104 2.5823601587 2.3809908765 1.8411308811 
1.0703065701 0.58587023709 2.7119381407 2.7785465473 0.32514316319 0.24343415847 0.080241127439 0.080823550303 0.15347190316 
0.084638093885 0.21146365257 0.1929829223 0.095384107305 0.11077845478 0.11077845478 0.079105129493 0.043203794381 0.047059177728 
0.052444497769 0.038165226606 0.038165226606 0.038165226606 0.038165226606 0.050883515664 0.069673502381 0.012544358177 0.037509590379 
0.038165226606 0.27023348116 0.099763040006 0.099763040006 1.0806867559 1.1090451025 1.1090451025 0.074594457124 0.024965232201 
0.15156375429 0.15156375429 0.11021269914 0.13418873322 0.026721226131 0.081669528048 0.084639198886 0.13418873322 0.85377347163 
0.83798120525 0.83798120525 0.83798120525 0.81366824497 0.79042322686 0.7682008219 1.3274674536 1.6635045661 0.15667614006 
0.18900978246 0.13917167193 0.19548252612 0.081053717099 0.097044096901 0.097044096901 0.19548252612 1.4209880266 1.6582407995 
1.2797777177 1.6441461578 0.19548252612 0.15884263912 0.15884263912 1.2341434215 1.6125065219 0.12287113852 0.12287113852 
0.056320706493 0.056320706493 0.025395169132 0.025518708823 0.12287113852 1.1913658077 1.1475453069 1.087560532 1.0650376241 
1.0446009923 1.0264631729 0.94537256379 1.6071029874 1.5903644665 1.5886523153 1.5932968515 1.6057096839 1.575169216 
1.6301921212 0.087773588269 1.7278412852 0.89799215904 0.71037633023 0.41317041741 0.11914340466 0.28685170764 0.20316519482 
0.09695633302 0.061819051652 0.23997807261 0.49440908282 0.035286819613 0.035286819613 0.8518907536 1.8368522164 0.73465358612 
2.0849861037 0.46242410706 0.071636792579 0.087380411856 0.15435197205 0.18944279262 0.24430016481 0.32813686581 0.4169127166 
0.5155158774 0.70933749734 0.55112991046 0.41209823315 0.035286819613 0.056320706493 0.68974694135 0.6546482158 0.91048711451 
0.58290610692 0.62316123926 0.40353487634 0.091389913241 0.091389913241 0.11412671667 0.92581262108 0.90100481451 0.8224344958 
0.79807197111 0.78649298446 0.78649298446 0.11412671667 0.14970164881 0.11590347953 0.16534595414 0.18991063358 0.34013057135 
0.33630501239 0.37224193105 0.75013671089 1.2642127407 1.286352158 1.3096451443 1.2689112135 1.228993745 1.1912055183 
1.1572677463 1.1293154612 1.1098125591 0.88979798301 0.92252043572 0.71316284358 0.58400720351 0.66219946934 0.27607588877 
0.80594720854 0.78030643654 0.72933124418 0.71970244296 0.70373367196 0.69168526772 0.8224344958 0.68254606215 0.70151256019 
0.69168526772 0.81087703347 0.34073349994 0.56442955497 0.28931024178 0.25608376924 0.1886747361 0.1884932202 0.12058252709 
0.14432781135 0.18612310139 0.234379563 0.28287013979 0.44344166156 0.14544972966 0.20509115248 0.60781363308 0.69106316603 
0.67824634428 0.63762365849 0.60781363308 0.58050078953 0.55883023159 0.6276247305 0.5499867479 0.51873018785 0.52178295551 
0.51121205016 0.42540140741 0.33221054459 0.33446536081 0.350180865 0.46154386741 0.63016410314 0.88971158662 0.99764272443 
0.20693596431 0.22515568762 0.095738329144 0.5396898093 0.45694749214 0.5255142461 0.40233460366 0.48394176544 0.34007941431 
0.26159861256 0.17811005127 0.17868665904 0.13188417241 0.23760973161 0.36782868224 0.5222128184 0.69767677598 0.61590096501 
0.15157155972 0.38502400152 0.32924540874 0.31130166278 0.19672874236 0.23655245542 0.42157093174 0.50947655746 0.81464733933 
0.77509198161 0.70564280142 0.89772372966 0.40733938764 0.66813808769 0.52823271095 0.22238013047 0.33499202987 0.35921197548 
1.1358401252 0.12630900347 0.20724164203 0.33637197635 0.16564534211 0.057487368552 0.13518084636 0.12979498872 0.41048645514 
0.24766777124 0.1779400417 0.27085884329 0.45067655061 1.1887569263 0.15605129786 0.034904627837 0.31833204007 0.17388476566 
1.0877964366 0.44849292184 0.48883700388 0.61350320388 0.80714179046 0.54077320705 0.50017261582 0.37294891932 0.34105630072 
0.28554674712 0.15259522208 0.11602835033 0.090738303934 0.17182635355 0.49820691402 0.47620414502 0.34251181045 0.30219248528 
0.27709607215 0.2635511575 0.13588643663 0.1293333552 0.02325162281 0.27581356474 0.27966967424 0.29030060637 0.28290085353 
0.16615572642 0.027020449187 0.13588643663 0.1293333552 0.12338017205 0.23906834728 0.022218565327 1.1067219064 0.53091569165 
1.1931409926 1.1494111984 1.1210724582 1.0934882003 0.21189005862 0.14830602713 0.20099592695 0.04442732773 0.066475743602 
0.079991748956 0.19995160202 0.44849677308 0.27755901134 0.16787584422 0.20859468174 0.32870835819 0.021273386024 0.54732657678 
0.11297293153 0.71764455143 1.0662619269 0.1162788849 1.1437522484 1.1151388113 1.0873057219 0.93095742972 0.79137336748 
0.36330474189 0.32873570426 0.31257031652 0.24645075766 0.83545211836 0.86786051581 0.85467855649 0.81527848306 0.7822925335 
0.82109972674 1.4742059892 1.4332367622 1.4216745044 1.4050184396 1.3646262473 1.3249048053 0.83244700361 0.37467237103 
0.29982855652 0.96957730209 0.97742552942 0.99026364918 1.0056520237 0.94354373849 0.77856972377 0.74371365924 0.68535379866 
0.63562805355 0.61259527591 0.58219552424 0.5725241614 0.58976265414 0.61815574549 0.74229397528 0.78236010819 0.82322341563 
0.87185343543 0.93136991513 0.94518303253 0.82676293369 0.84563434831 0.74811081202 0.87851664776 1.1471632005 1.1997578762 
1.5461596385 0.8611031739 1.0422781941 1.0357180368 0.43579602665 1.1163772974 1.1132827 1.1107029725 1.080564915 
1.078438438 1.047567168 1.019192041 0.9917740808 0.34934769959 0.28474416169 0.1941446734 0.045639144636 0.23397080597 
0.91228456406 0.83996542527 0.8303202042 0.85543951599 0.25901893283 0.39006669356 0.23478981898 0.88667664267 0.31534251354 
1.0334651136 0.37455126037 0.18539982996 0.20709545059 0.33172580364 1.2235948787 1.2616736913 1.2274292816 1.2827330273 
1.2896922543 1.3013169863 1.2850987747 1.3085043311 1.1357663358 1.0965479277 0.96371747261 0.86019916957 0.79595700397 
0.66259545559 0.58441378136 0.72436664306 0.7149621767 0.88796029188 0.9603468882 1.3586461985 0.95448195518 1.0597300292 
0.8283567034 0.38258096743 0.54890893784 0.57329372543 0.29170568994 0.053043652406 0.84395950639 0.84880589036 0.86245344572 
1.0518890489 0.26800150545 0.054503106047 0.96855337877 0.9766346579 0.32351623114 0.42590750597 0.45158267864 0.39867279253 
0.34931104382 0.25218263545 0.18283027036 0.080833264475 0.060421039085 0.20899992073 0.21845407058 0.78866333449 0.69168526772 
0.81087703347 0.26814674994 0.33780266989 0.16332112675 0.11573851329 0.20382362536 0.31162645208 0.42769266165 0.58594029578 
0.66709450486 0.87296702964 0.1472287935 0.14776493281 0.39192700881 1.0758116344 1.0705867455 1.0705867455 1.0705867455 
0.35354199964 0.32484147962 0.35850221861 0.23983858166 0.17243388095 0.019138730142 0.17648032711 0.21687114439 0.21687114439 
0.21687114439 0.25297184966 0.32579368889 0.37514275987 0.45457364824 0.57532062681 0.80803836965 0.70026628787 0.61819432713 
0.49201382132 0.33249584767 0.12727769956 0.15079403257 0.30107382511 0.3440421213 0.32039508972 1.3024378062 1.1130160058 
1.0575159568 0.29813211302 0.36822941342 0.3761264389 0.36472898861 0.35551364458 0.16931967978 0.070339082386 0.081454749974 
0.10062063658 0.16105844642 0.13011551668 0.19469793769 0.2245086699 0.12048740691 0.061718976542 0.057322301696 0.14480749938 
0.3130185663 0.44532089156 0.18954524055 1.1592102289 0.21936085653 0.14209162791 0.16293566603 0.11061734958 0.039652751593 
0.039652751593 0.079793759959 0.040024709998 0.060458370438 0.13488812329 0.18107576371 0.25598649978 0.24572705453 0.23751519876 
0.14501511568 0.20311681641 0.11376702685 0.16834285794 0.054962765233 0.18368889942 0.10718612956 0.088361969775 0.14385011351 
0.19336684569 0.18691993373 0.14119196956 0.12759578414 0.080100080112 0.15217202363 0.14006635212 0.14438762946 0.12016592259 
0.085174925961 0.053947605782 0.14456648099 0.26904737072 0.24591762053 0.29199431953 0.33472285426 0.26904737072 0.24267116418 