# vtk DataFile Version 5.1
vtk output
ASCII
DATASET POLYDATA
POINTS 1295 double
23.89500095 58.455002323 106.5 23.89500095 59.670002371 93 24.030000955 58.320002317 107 
24.030000955 58.590002328 106 24.030000955 58.725002334 106 24.030000955 59.805002376 93.5 
24.16500096 58.185002312 107 24.16500096 58.860002339 106 24.16500096 59.805002376 94 
24.300000966 56.970002264 107 24.300000966 57.105002269 107 24.300000966 57.240002275 107 
24.300000966 57.37500228 107 24.300000966 57.510002285 107 24.300000966 57.645002291 107 
24.300000966 57.780002296 107 24.300000966 57.915002301 107 24.300000966 58.050002307 107 
24.300000966 58.995002344 106 24.300000966 59.805002376 94.5 24.435000971 56.835002258 107.5 
24.435000971 59.13000235 106 24.435000971 59.805002376 95 24.570000976 56.430002242 107.5 
24.570000976 56.565002248 107.5 24.570000976 56.700002253 107.5 24.570000976 59.265002355 106 
24.570000976 59.805002376 95.5 24.705000982 32.400001287 125 24.705000982 56.295002237 108 
24.705000982 59.40000236 105.5 24.705000982 59.535002366 105.5 24.705000982 59.940002382 96 
24.840000987 32.535001293 124.5 24.840000987 32.805001304 124.5 24.840000987 33.075001314 124.5 
24.840000987 55.755002216 108 24.840000987 55.890002221 108 24.840000987 56.025002226 108 
24.840000987 56.160002232 108 24.840000987 59.670002371 105 24.840000987 59.805002376 105 
24.840000987 59.940002382 105 24.840000987 60.075002387 96.5 24.975000992 31.995001271 125 
24.975000992 32.130001277 125 24.975000992 32.670001298 124.5 24.975000992 32.940001309 124.5 
24.975000992 33.075001314 124.5 24.975000992 33.21000132 123 24.975000992 33.21000132 123.5 
24.975000992 33.345001325 123 24.975000992 33.345001325 123.5 24.975000992 33.48000133 122.5 
24.975000992 33.48000133 123 24.975000992 33.615001336 122.5 24.975000992 33.615001336 123 
24.975000992 33.750001341 122.5 24.975000992 53.86500214 109.5 24.975000992 54.000002146 109.5 
24.975000992 54.135002151 109.5 24.975000992 54.270002156 109.5 24.975000992 54.405002162 109.5 
24.975000992 54.540002167 109 24.975000992 54.675002173 109 24.975000992 54.810002178 109 
24.975000992 54.945002183 109 24.975000992 55.080002189 108.5 24.975000992 55.215002194 108.5 
24.975000992 55.350002199 108.5 24.975000992 55.485002205 108.5 24.975000992 55.62000221 108.5 
24.975000992 60.075002387 97 24.975000992 60.075002387 97.5 24.975000992 60.075002387 104.5 
25.110000998 32.265001282 124.5 25.110000998 32.400001287 124.5 25.110000998 32.535001293 124.5 
25.110000998 32.670001298 124.5 25.110000998 32.805001304 123.5 25.110000998 32.805001304 124 
25.110000998 32.805001304 124.5 25.110000998 32.940001309 123 25.110000998 32.940001309 123.5 
25.110000998 32.940001309 124 25.110000998 32.940001309 124.5 25.110000998 33.075001314 123 
25.110000998 33.075001314 123.5 25.110000998 33.075001314 124 25.110000998 33.075001314 124.5 
25.110000998 33.21000132 124 25.110000998 33.21000132 124.5 25.110000998 33.345001325 122.5 
25.110000998 33.345001325 124 25.110000998 33.48000133 123.5 25.110000998 33.48000133 124 
25.110000998 33.615001336 123.5 25.110000998 33.750001341 122 25.110000998 33.885001346 122 
25.110000998 34.020001352 123 25.110000998 34.155001357 122.5 25.110000998 53.055002108 110.5 
25.110000998 53.190002114 110 25.110000998 53.325002119 110 25.110000998 53.460002124 110 
25.110000998 53.59500213 110 25.110000998 53.730002135 110 25.110000998 60.075002387 104 
25.110000998 60.210002393 98 25.245001003 32.400001287 124.5 25.245001003 32.535001293 124.5 
25.245001003 32.670001298 123.5 25.245001003 32.670001298 124 25.245001003 32.805001304 124.5 
25.245001003 33.21000132 122.5 25.245001003 33.345001325 125 25.245001003 33.48000133 122 
25.245001003 33.885001346 123.5 25.245001003 34.020001352 122 25.245001003 34.290001363 122 
25.245001003 34.425001368 122.5 25.245001003 52.785002097 110.5 25.245001003 52.920002103 110.5 
25.245001003 60.210002393 98.5 25.245001003 60.210002393 99 25.245001003 60.210002393 103 
25.245001003 60.210002393 103.5 25.380001009 32.265001282 124.5 25.380001009 32.535001293 123.5 
25.380001009 32.805001304 124.5 25.380001009 33.075001314 122.5 25.380001009 33.345001325 125 
25.380001009 33.615001336 121.5 25.380001009 33.750001341 121.5 25.380001009 33.885001346 121.5 
25.380001009 33.885001346 123.5 25.380001009 34.020001352 121.5 25.380001009 34.155001357 121.5 
25.380001009 34.290001363 121.5 25.380001009 34.560001373 122 25.380001009 52.515002087 111 
25.380001009 52.650002092 111 25.380001009 60.345002398 99.5 25.380001009 60.345002398 102.5 
25.515001014 32.130001277 125 25.515001014 32.400001287 123.5 25.515001014 34.020001352 123.5 
25.515001014 34.155001357 121.5 25.515001014 34.290001363 121.5 25.515001014 34.425001368 121.5 
25.515001014 34.560001373 121.5 25.515001014 34.695001379 122 25.515001014 51.435002044 111.5 
25.515001014 51.570002049 111.5 25.515001014 51.705002055 111.5 25.515001014 51.84000206 111.5 
25.515001014 51.975002065 111.5 25.515001014 52.110002071 111.5 25.515001014 52.245002076 111.5 
25.515001014 52.380002081 111.5 25.515001014 60.345002398 100 25.515001014 60.345002398 101.5 
25.515001014 60.345002398 102 25.650001019 34.290001363 120.5 25.650001019 34.290001363 121 
25.650001019 34.425001368 121.5 25.650001019 34.560001373 121.5 25.650001019 34.695001379 121.5 
25.650001019 51.300002038 111.5 25.650001019 60.345002398 100.5 25.650001019 60.345002398 101 
25.785001025 34.425001368 120.5 25.785001025 34.425001368 121 25.785001025 34.560001373 121 
25.785001025 34.695001379 121.5 25.785001025 51.165002033 111.5 25.92000103 34.560001373 120.5 
25.92000103 34.560001373 121 25.92000103 34.695001379 121 25.92000103 51.030002028 112 
26.055001035 34.695001379 120.5 26.055001035 34.695001379 121 26.055001035 34.830001384 120.5 
26.055001035 34.830001384 121 26.055001035 50.490002006 112 26.055001035 50.625002012 112 
26.055001035 50.760002017 112 26.055001035 50.895002022 112 26.190001041 34.965001389 120.5 
26.190001041 50.220001996 112.5 26.190001041 50.355002001 112.5 26.325001046 34.965001389 121 
26.325001046 35.100001395 120.5 26.325001046 35.370001405 120.5 26.325001046 50.08500199 112.5 
26.460001051 34.830001384 121.5 26.460001051 34.965001389 121 26.460001051 35.2350014 120.5 
26.460001051 35.370001405 120.5 26.460001051 36.180001438 118.5 26.460001051 49.815001979 112.5 
26.460001051 49.950001985 112.5 26.595001057 34.425001368 121.5 26.595001057 34.560001373 121.5 
26.595001057 34.695001379 121.5 26.595001057 34.830001384 121.5 26.595001057 35.2350014 120.5 
26.595001057 35.370001405 120 26.595001057 35.505001411 120 26.595001057 36.180001438 118.5 
26.595001057 36.180001438 120 26.595001057 49.545001969 113 26.595001057 49.680001974 113 
26.730001062 34.695001379 121.5 26.730001062 34.830001384 119 26.730001062 34.965001389 119 
26.730001062 35.100001395 120.5 26.730001062 35.2350014 119.5 26.730001062 35.370001405 119.5 
26.730001062 35.505001411 119.5 26.730001062 35.640001416 119.5 26.730001062 36.045001432 120 
26.730001062 36.180001438 118.5 26.730001062 49.275001958 113 26.730001062 49.410001963 113 
26.865001068 34.560001373 122 26.865001068 34.695001379 121.5 26.865001068 35.100001395 119 
26.865001068 35.2350014 119 26.865001068 35.370001405 119 26.865001068 35.775001422 119.5 
26.865001068 35.910001427 119.5 26.865001068 36.180001438 118.5 26.865001068 48.735001937 113.5 
26.865001068 48.870001942 113.5 26.865001068 49.005001947 113.5 26.865001068 49.140001953 113.5 
27.000001073 34.425001368 122 27.000001073 34.695001379 121.5 27.000001073 35.370001405 119 
27.000001073 35.505001411 119 27.000001073 35.640001416 119 27.000001073 35.910001427 119.5 
27.000001073 36.045001432 119 27.000001073 36.045001432 119.5 27.000001073 36.180001438 119.5 
27.000001073 36.315001443 119.5 27.000001073 36.450001448 119.5 27.000001073 36.585001454 119.5 
27.000001073 36.720001459 119.5 27.000001073 36.855001464 119.5 27.000001073 48.465001926 114 
27.000001073 48.600001931 113.5 27.135001078 34.425001368 122 27.135001078 34.560001373 121.5 
27.135001078 36.045001432 119.5 27.135001078 36.180001438 119 27.135001078 36.315001443 119 
27.135001078 36.99000147 118 27.135001078 37.260001481 119.5 27.135001078 48.195001915 114.5 
27.135001078 48.33000192 114.5 27.270001084 34.290001363 122 27.270001084 34.425001368 121.5 
27.270001084 36.180001438 119.5 27.270001084 36.450001448 119 27.270001084 36.585001454 119 
27.270001084 36.855001464 118 27.270001084 37.125001475 119 27.270001084 46.845001861 115.5 
27.270001084 46.980001867 115.5 27.270001084 47.115001872 115.5 27.270001084 47.250001878 115.5 
27.270001084 47.385001883 115.5 27.270001084 47.520001888 115 27.270001084 47.655001894 114.5 
27.270001084 47.790001899 114.5 27.270001084 47.925001904 114.5 27.270001084 48.06000191 114.5 
27.405001089 34.290001363 122 27.405001089 34.425001368 121.5 27.405001089 36.180001438 119.5 
27.405001089 36.585001454 118.5 27.405001089 36.720001459 118.5 27.405001089 36.720001459 119 
27.405001089 36.855001464 119 27.405001089 36.99000147 119 27.405001089 37.125001475 119 
27.405001089 46.710001856 115.5 27.540001094 34.155001357 122 27.540001094 34.290001363 121.5 
27.540001094 36.180001438 119.5 27.540001094 36.855001464 118.5 27.540001094 36.855001464 119 
27.540001094 36.99000147 118.5 27.540001094 37.260001481 119 27.540001094 37.395001486 119 
27.540001094 46.575001851 115.5 27.6750011 34.020001352 122 27.6750011 36.99000147 119 
27.6750011 37.125001475 118.5 27.6750011 37.260001481 118.5 27.6750011 37.530001491 119 
27.6750011 37.665001497 119 27.6750011 46.440001845 116 27.810001105 37.260001481 118.5 
27.810001105 37.395001486 118.5 27.810001105 37.800001502 119 27.810001105 37.935001507 119 
27.810001105 45.900001824 116 27.810001105 46.035001829 116 27.810001105 46.170001835 116 
[...]
CELL_DATA 1294
SCALARS angle%0A[rad] double
LOOKUP_TABLE default
0 1.3158046696 1.0322881683 0.80631608995 0.75152358087 0.46462246653 0.9515821148 0.74566770128 0.67135715578 
0.67532239344 0.57050674059 0.54051203015 0.49372800328 0.69788076136 0.4357631198 0.40745961202 0.46681635988 0.57419906753 
0.79936684081 0.51099656383 0.44981034816 0.45024684802 0.72665113017 0.43519407716 0.41983051216 0.41541173188 0.39725760729 
0.34970681366 0.30409960895 0.30409960895 0.2850263435 0.2850263435 1.0055533305 1.0011596434 0.99652964186 0.99652964186 
0.97082209266 0.93907135179 0.87035078009 0.82699175172 0.76937802496 0.68841689394 0.59556509262 0.52189855167 0.49019613916 
0.40178257495 0.33825352323 0.33990214356 0.43981612412 0.52491327776 0.25091442086 0.25091442086 0.2490672531 0.26244344973 
0.36607163523 0.38770330748 0.3994414001 0.39650053431 0.41268400598 0.40886140274 0.20560720842 0.28683602282 0.29484887137 
0.30408280565 0.31670991453 0.19380919732 0.21164020707 0.18753990137 0.14632033737 0.16824213452 0.16067899463 0.25978479826 
0.28223853561 0.31704811256 0.34701207023 0.43172903359 0.23198059927 0.24752333727 0.34701207023 0.34701207023 0.41407874352 
0.18477137689 0.16838042067 0.24664743693 0.28131990794 0.31787107663 0.35582127759 0.46266368376 0.16759919621 0.19268214404 
0.21083549523 0.23009670928 0.23009670928 0.19268214404 0.27310757639 0.098048627797 0.27862741489 0.17826853885 0.17826853885 
0.17826853885 0.17826853885 0.27550053794 0.20066546278 0.12472467097 0.12265094993 0.32909886233 0.31648034534 0.16800224496 
0.1111149242 0 0.17663293909 0.082212789473 0.063264128733 0.045380367466 0.075545698745 0.21163803884 0.19040178967 
0.2316674514 0.22195280762 0.26776038133 0.23881639395 0.29524588548 0.30746380049 0.32134803622 0.34571864055 0.26949811158 
0.3006928027 0.22528344269 0.21832674208 0.30096053909 0.16046129072 0.13835079102 0.12993051052 0.12503493025 0.14364539948 
0.10576252979 0.066626615527 0.064263387427 0.068820826473 0.078288368624 0.1457034339 0.1457034339 0.1568255909 0.17338234003 
0.32617297642 0.29397435217 0.16470460647 0.14010494435 0.13919709568 0.21390327433 0.11366473424 0.10535954103 0.10551709894 
0.10078264114 0.20101774412 0.2022702946 0.20523711993 0.27808463686 0.34058165228 0.34430547703 0.34961850392 0.35668891982 
0.41354922889 0.43663943385 0.46357889475 0.5625436016 0.62205247149 0.68727386409 0.75432508551 0.82594040548 0.72405742786 
0.75423930387 0.74546976228 0.80645087407 0.80394593015 0.80700071836 0.71057218894 0.8447824879 0.7090354403 0.75842665433 
0.80678981647 0.76922674368 0.62095279284 0.5706999673 0.52683347293 0.63394490054 0.57860075231 0.4420766345 0.48272549928 
0.47725480979 0.39283157524 0.33346632126 0.26193448769 0.2507533095 0.23548703503 0.15792707839 0.1617155995 0.14141213396 
0.076991709007 0.073490439632 0.064714354614 0.054013686039 0.071623206343 0.17819878244 0 1.2060444979 1.1272264844 
0.1756443696 0.98381532287 0.86326404765 0.44956436786 0.88061278095 0.10188766666 0.075970775917 0.25689886839 0.074590954367 
0.18259925445 0.80898812048 0.52473840942 0.57611373147 0.59630494355 0.42298624685 1.1040966616 0.28717715786 1.3027684883 
1.0758116344 1.0705867455 0.36684986258 0.36173210272 0.21576739991 0.25440716419 0.73601911483 0.16436786324 1.0914928672 
1.0550149894 1.0934882003 1.0045556815 0.66317345199 0.41237990945 1.0613975054 1.1880899698 0.61590096501 0.91860028699 
0.49375130035 0.63368218867 0.7726123629 0.76587243509 0.9254185287 0.37900516022 0.26642930023 1.3498948497 1.2052606413 
0.86434958036 0.84632604544 1.4272342848 0.13321419103 0.11120523122 1.0231100948 1.2478604569 0.33616497578 0.24110450674 
0.13167006623 0.1194355393 0.23563760038 0.28906577686 0.34163594824 0.76606440356 1.3660817727 1.2962672215 1.3121362799 
0.38593330598 0.44356984239 0.296757915 0.37129330213 0.5632175432 0.75914308505 0.67947288486 0.65099532381 0.58792467281 
0.5348810204 1.1848709506 0.46012526846 0.29359332567 1.2417132835 0.96979858849 1.5029405872 0.51141501049 0.77454254101 
0.57380562569 0.5768661419 1.390225244 0.97651340528 0.21031955425 1.2116904609 1.3771184028 1.5838883816 1.4544006859 
1.060230399 1.5707963268 1.446315835 1.325577753 1.3231006243 1.7684966958 1.4085415515 1.7584035412 2.0465545762 
1.2761622182 0.47129520188 2.0895052853 1.1272264844 1.0583347115 0.7853981634 0.463647609 0.3217505544 0.6409998489 
0.7688317876 0.91394196027 0.80083634444 0.7688317876 0.56887902055 0.85621603153 1.3157973919 0.1418970546 0.463647609 
0.3217505544 0.24497866313 0.19739555985 0.16514867741 0.1418970546 0.57050674059 0.80603051841 0.67682013053 1.3549391089 
0.98092807676 0.733172 0.59077652665 0.66165920284 0.59814776106 1.6466796635 1.7243523472 0.36158109616 1.2220605251 
1.0794291858 1.0288791184 0.65625501087 0 0.34111503359 0.31485910159 1.4066183917 0.28574656418 0.49698112376 
1.4110280481 1.6677947006 0.41381807247 1.3258893803 1.3238313967 1.3158046696 1.090229335 0 0.48576632892 
1.2819105122 1.2323529759 0.3217505544 1.2030711671 1.1794096299 0.463647609 1.1643402121 1.0653986392 1.0106815198 
1.1649419972 0.7853981634 0.34793561285 0.60936779203 0.99978745263 0.64350110879 0.50187448065 0.43469638938 0.80932497429 
1.082503938 0.70362251517 0.68177936452 0.68177936452 1.0794087634 0.70228946022 0.68223299053 1.0762315076 0.61424736413 
1.0353972851 0.99644892063 0.9593688083 1.0372946877 1.0042807212 0.7177051342 0.98357531342 0.38054924441 0.95693124417 
0.2850263435 0.27988947183 0.52328384519 0.94449449108 0.4861289361 0.95819160735 0.93385998076 0.29047284831 0.48624034962 
0.3071079356 0.4240546848 0.22283796589 0.44938102984 0.40148066082 0.23797361177 0.23697551432 0.41472371604 0.36507293159 
0.38335053084 0.3311284759 0.37302525193 0.26568433951 0.17606027058 0.18139120683 0.11794848642 0.12128606904 0.12128606904 
0.43869028812 0.37199851529 0.29618133987 0.37055476167 0.21978081261 0.65887557108 0.49561520723 0.85033869777 0.42965309938 
1.0464598992 1.3285257806 0.5897431465 0.54647241313 0.5304624748 0.50422638627 0.4773133994 1.3822359233 1.3678133149 
1.3822788597 1.3996380681 1.3813938013 1.4269451194 1.4372299489 1.4900767024 1.6247213439 1.6454135158 1.6900772689 
1.6392146632 1.5137824094 1.3914905709 1.1579915152 1.0672231391 1.0865441027 1.047308369 0.9776631004 0.96820432373 
0.87240410317 0.777750139 0.67678741551 0.60341493711 0.48920271753 0.40118161133 0.27027087223 0.13121025799 0.04804938116 
0.20306227158 0.34676288822 0.39094635145 0.46609295928 0.38020392255 0.60369277322 0.79843322267 0.25183400359 0.19870029324 
0.42333340037 0.39645319848 0.36915623408 0.35825538527 0.33131493925 0.3042005474 0.3042005474 0.2952451123 0.28678773146 
0.2787890953 0.25877089196 0.25877089196 0.2310906672 0.2310906672 0.22471116841 0.19739555985 0.19739555985 0.16977827397 
0.16977827397 0.1418970546 0.13800602366 0.11065722117 0.57430483017 0.083141231888 0.57464461949 0.60715348777 0.61577324014 
0.56672921752 0.51264886368 0.5325040983 0.47309402167 0.5347441923 0.4742105964 0.56094893508 0.50160405419 0.61561988943 
0.81301544928 0.90975315794 0.5543074962 0.51914611425 0.29423456511 0.49116359829 0.45430208669 0.42662749313 0.63742072056 
0.60072739215 0.59831215866 0.62479550934 0.50802784474 0.36710375225 0.377376542 0.17907457157 0.16683447389 0.50826762385 
0.38495520514 0.52146927774 0.83719126593 0.79238483093 0.45570883707 0.5540743079 0.48491668467 0.36733436407 0.21978081261 
0.6338860526 0.5897431465 0.57242779278 0.54647241313 0.54647241313 0.51975767202 0.50422638627 0.4773133994 0.55123734083 
0.53268237671 0.51538326671 0.51651089902 0.50557211664 0.51734299205 0.53857249215 0.53921322824 0.23783592746 0.2310906672 
0.20304521725 0.4004407771 0.42171416313 0.27036725226 0.28790931232 0.28225742198 0.058755822716 0.058755822716 0.057080782406 
0.028563657839 0 0.69973841704 0.21523295566 0.28354319886 0.41745212733 0.16371448717 0.22934168176 0.19205133374 
0.19205133374 0.82397161016 0.5992674858 0.56523467345 0.3930941511 0.39102079747 0.45714513475 0.39102079747 0.55711448085 
0.70145568844 0.49844816907 0.67155555096 0.92885082104 0.72470686949 1.3550651904 1.4179630739 1.6191255715 0.79760447464 
0.7209380999 0.76434260515 0.6622099959 0.59242337185 0.55186293234 0.45742835835 0.8235373155 0.83203932673 0.35825538527 
0.79559246637 0.81428445954 0.79046928496 0.82785232872 0.79383278951 0.78003779184 0.74892996743 0.73783024436 0.33131493925 
0.70966986054 0.7377696001 0.78212899967 0.77428240607 0.54186822388 0.49251205823 0.61319988586 1.3577370943 0.27106660957 
0.39862325695 1.313691925 1.3713383912 1.2601418792 1.2123509839 1.1627349639 1.2484388225 1.1792504499 1.1432199629 
0.97233442313 0.88950119348 0.83606400149 0.7823750942 0.77287054823 0.71561600066 0.66498038251 0.54737257162 0.51407766922 
0.4749575335 0.30883133817 0.23471001774 0.17871642821 0.23218577199 0.18840504834 0.14669946311 0.050577077371 0.093377785579 
0.14097624566 0.25817078829 0.03708980648 0.019055114829 0.078562667526 0.13953725351 0.30901106309 0.35584132701 0.10822445969 
0.032501431832 0.09841239908 0.22518166122 0.52976914763 0.54668810142 0.68909389673 0.77089015251 0.80404419849 0.78427785586 
0.76627519749 0.77936768748 0.65402183518 0.64768674793 0.52662727143 0.38705859258 0.52662727143 0.35425603925 0.38091722471 
0.38091722471 0.3550165596 0.33409511507 0.33425889748 0.18337151784 0.16756933722 0.16756933722 0.2711090911 0.2711090911 
0.2711090911 0.24992687758 0.20859237026 0.46492546084 0.35028447438 0.33794729113 0.30332572945 0.29820504679 0.35846658113 
0.46951003463 1.5079875233 1.5267675568 1.4140941597 1.3897037277 1.3640219503 1.2229053073 1.1984472937 1.1420571158 
1.1063386791 0.86249018609 0.6966959232 0.79182253084 0.7585111642 0.70914266419 0.66129601852 0.46903406833 0.55897587708 
0.53650558571 0.50397611416 0.51179556615 0.51334404048 0.57804460108 0.51384346599 0.50371945694 0.49365175953 0.44677678997 
0.64801257442 0.64105705433 0.63415594948 0.35300848901 0.33452730859 0.28620235618 0.21830691124 0.2125004777 0.21538961761 
0.15323331404 0.16225752558 0.17365215835 0.14202506624 0.46480869345 0.25260094272 0.33654753318 0.30322983911 0.38201291453 
0.30077103455 0.27606432127 0.44758843471 0.36088439445 0.26328369986 0.21801856357 0.12952311124 0.10648276426 0.093383961422 
0.058910677785 0.093383961422 0.1273324993 0.11703249633 0.25990439277 0.4023362205 0.036385874101 0.074666950131 0.19408855418 
0.21182722851 0.16180292551 0.22563526072 0.34407506029 0.28517878343 0.17090115662 0.12148522732 0.080026236276 0.14437897231 
0.081193956918 0.10991646253 0.18537853753 0.16005203254 0.18545809372 0.19092623422 0.19980115887 0.21280795869 0.20686163008 
0.22707334602 0.24061436496 0.2314178595 0.19996620343 0.20333037723 0.17406092345 0.16129074862 0.1717879914 0.085174925961 
0.18746731271 0.14309353201 0.16724190489 0.12196499456 0.075436763564 0.026750893396 0.16278140806 0.079900884647 0.10064318764 
0.11631167363 0.052607886017 0.18679661924 0.0087036740789 0.10648276426 0.10648276426 0.087394794343 0.093338441564 0.10800733666 
0.13949771376 0.13528480392 0.066202958353 0.11547699881 0.11867506683 0.21907437665 0.25359690025 0.22898355275 0.13441328633 
0.11423988807 0.080911604691 0.12054876066 0.11438482084 0.17231410974 0.19003478073 0.16467766282 0.14175083756 0.1574023259 
0.11605747872 0.14377460416 0.17697450993 0.12853508026 0.22213630527 0.19966378087 0.11994082743 0.1107449372 0.060086542873 
0.060086542873 0.076067713233 0.076067713233 0.060108489129 0.053869273626 0.060195649093 0.07616430531 0.097138799067 0.1202874685 
0.07616430531 0.07616430531 0.069501637227 0.081164581823 0.044813002566 0.057337448077 0.060195649093 0.03006837117 0.028349727907 
0.11086736701 0.085174925961 0.090314248707 0.097044096901 0.097044096901 0.076219594234 0.12185809633 0.13991424685 0.11696644738 
0.13438189447 0.078434468892 0.060300643582 0.060300643582 0.24267116418 0.064676540544 0.097044096901 0.097044096901 0.22454112 
0.14344856304 0.19421001463 0.32741470956 0.18600161523 0.2298352149 0.21863567051 0.13527393552 0.14373246278 0.14689376224 
0.069167148222 0.037518811748 0.10648276426 0.26656961541 0.30041390205 0.44701510605 1.4635618205 0.88289443545 0.074568307078 
0.15918680581 0.064235038682 0.058145569519 0.07243644286 0.098635751301 0.1897482454 0.1897482454 0.1897482454 0.2086849486 
0.18813581376 0.18598891525 0.28201482223 0.031857960353 0.12272227724 0.1596342601 0.12953319751 0.11968966126 0.13125324443 
0.14531093115 0.14287062035 0.16306726624 0.15884890304 0.13274463613 0.16369101894 0.1797731817 0.15760123479 0.18273626013 
0.26613275886 0.18392403926 0.20593224703 0.20915963253 0.17990285725 0.13342431505 0.12064768339 0.091816955872 0.045275767617 
0.036758755996 0.14650425296 0.058932759165 0.031087443035 0.08289264784 0.11900595689 0.10745002845 0.095480979202 0.087179393553 
0.08289264784 0.15566730395 0.18905562578 0.23728501689 0.35250693365 0.29808029702 0.28293304907 0.2827780956 0.35673069541 
0.40210133614 0.32362653736 0.29332904961 0.27886453732 0.24811715809 0.21667347994 0.20469320522 0.17060340642 0.18126537317 
0.19924052904 0.16314663347 0.22818524211 0.17687559475 0.24664743693 0.26647251426 0.2877017573 0.31032104719 0.30536362633 
0.319295138 0.34813448095 0.25394403035 0.30063251335 0.15958316822 0.20321879999 0.27496350532 0.32015414956 0.36534358642 
0.49481057102 0.49481057102 0.54380895494 0.56961955251 0.59609325887 0.62321726597 0.5029511297 0.48209795911 0.50873705072 
0.39222815165 0.45372254749 0.47568862878 0.55684719069 0.62597670013 0.67695318943 0.71226642648 0.62762704297 0.64676202439 
0.57994985231 0.56898511476 0.53587786034 0.51218894542 0.44061642344 0.38957580668 0.31129824242 0.25539854013 0.20250355373 
0.18438510553 0.20974021636 0.09211351839 0.082523416962 2.4527846028 2.4833902849 2.4865162027 2.5207105069 2.5645252378 
2.4916575709 2.3517973788 2.0110878727 0.036724508396 1.0644562173 0.30898057961 0.076915225224 0.13927707698 0.26193533325 
1.3074506302 0.03868918287 0.096077468292 0.11755440689 0.099355463558 0.099355463558 0.038683618263 0.099195405753 0.099195405753 
0.10211012625 0.071671498998 0.042552399072 0.037279007701 0.056812874404 0.026103139894 0.056793245048 0.11062667671 0.13980939939 
0.19923800731 0.29149896672 0.34473261847 0.39747814514 0.46821593705 0.49515797783 0.47316511929 0.45197081616 0.43225254936 
0.41513900149 0.35027088699 0.44897209136 0.44470405316 0.63643444682 0.65210316994 0.66890075458 0.65087107805 0.67039911745 
0.69561504111 0.65866173321 0.62170348926 0.53254147823 0.4935147758 0.46125164822 0.42820111905 0.38522796323 0.3410000972 
0.34035820263 0.34778585762 0.41927096134 0.43377223949 0.37987816014 0.34559921517 0.32130470758 0.34225775776 0.32325588859 
0.29473421284 0.27530439732 0.31194016835 0.32690216897 1.4202116585 1.3652039231 0.18831285772 0.23408752675 0.3326491108 
0.2164722586 0.48613306708 0.20841514172 0.09457347469 0.42488453027 0.085174925961 0.085174925961 0.26943373158 0.25532239334 
0.038165226606 0.54590616677 0.15840012132 0.29742626032 0.058922603426 0.20287340792 0.17917904214 0.11973368626 0.13418873322 
0.038054528324 0.1148562084 0.12445861701 0.13413987316 0.24988171488 0.22994337925 0.60843428007 0.52793856396 0.13156531006 
0.14907292323 0.19610899322 0.75742786262 0.83612380651 0.94595066943 0.84629841241 0.88420438102 0.96616951164 1.0648839856 
1.0333977497 1.1813609713 0.90920390611 0.69262367077 0.63495211637 0.19728757889 0.18716778733 0.26609747841 0.20841514172 
0.40461962372 0.11405416391 0.11405416391 0.12952311124 0.22575598746 0.081351652565 0.081351652565 0.24206332276 0.22077845421 
0.20290391774 0.18300234143 0.32517681927 0.09457347469 0.24396919488 0.18300234143 0.30141709415 0.11053410582 0.037518811748 
0.13350784495 0.22213630527 0.16440056745 0.20841514172 0.16278140806 0.1869968396 0.15111200718 0.1505973363 0.2407698213 
0.29096147926 0.071623206343 0.17819878244 0.22925117221 0.35108399922 0.55681182314 1.439097593 0.38931705624 0.53089772115 
0.20283938056 0.29956744201 0.11194055559 0.097281603081 0.068310836923 0.038084079626 0.49116359829 0.45430208669 0.11683897081 
0.1047104816 0.026543652431 0.42662749313 1.1849136574 1.1466019189 0.17661869244 0.079152454582 0.079152454582 0.25192415755 
0.28848784529 0.24507382472 0.44232838941 0.056828375086 0.32660213934 0.24607002375 0.29096147926 1.1071487178 0.26625204915 
0.41823089907 0.21645076719 1.185986829 0.26625204915 0.20249286931 1.2003466455 0.027848622549 0.93993499427 1.1466019189 
1.1071487178 1.0666303653 1.0417742365 0.3310960767 0.31369779484 1.2896786957 1.2532472035 0.50055115933 0.63922124443 
0.60935315403 0.55073922199 0.042931441283 0.057435341872 0.057435341872 0.21450153724 0.15706964847 0.13149715414 0.11770974289 
0.142202745 0.15763551956 0.18667865598 0.23455080521 0.2081040588 0.18953163763 0.13418873322 0.11405416391 0.11405416391 
0.097044096901 0.09661420808 0.21146365257 0.080823550303 0.24267116418 0.44424755896 0.076219594234 0.12853508026 0.3722811777 
1.4900898499 0.3310960767 0.35237167373 0.13264610441 0.11696644738 0.13438189447 0.16140047716 0.09628665457 0.085174925961 
0.085174925961 0.17886028564 0.35017589177 0.15684087178 0.18014091779 0.10468549644 0.060300643582 0.060300643582 0.13527393552 
0.11374613158 0.076219594234 0.6275865052 0.09661420808 0.2164722586 0.15453683087 0.38070800659 0.22454112 0.29552561143 
0.26904737072 0.085174925961 0.463647609 0.7853981634 0.31159248762 0.10991646253 0.16004024426 0.22263993585 0.039453201097 
0.38070800659 0.41430972978 1.5977505182 0.18958357907 0.16380819564 0.23287011971 0.29096147926 1.4900898499 0.22213630527 
0.20198120684 1.6247439326 0.7697985109 0.72410097315 0.36120375549 1.4900020926 0.16371448717 0.16371448717 0.16371448717 
0.27475885115 0.2507533095 1.0394756256 1.3224746103 0.33473683732 0.58546472397 0.29096147926 0.21687989283 0.19205133374 
0.16873542791 0.16873542791 0.16371448717 0.31508399352 0.54000851527 0.34191991201 0.99631340978 
METADATA
INFORMATION 0

FIELD FieldData 8
angle_vert%0A[rad] 1 1294 double
0 0.54316377457 1.0049100888 1.0049100888 1.0049100888 0.82770418042 0.82770418042 1.0049100888 1.0049100888 
1.0049100888 1.1401629134 1.1401629134 1.1401629134 1.1401629134 1.2115256305 1.2115256305 1.2115256305 1.1211363203 
1.1211363203 1.1211363203 1.1754771641 1.1754771641 1.1754771641 1.1932481395 1.2095826661 1.2095826661 1.224637199 
1.2805615345 1.366792532 1.3587588643 1.3538124123 1.3447032912 1.3051542798 1.3051542798 1.3690749072 1.3690749072 
1.3687081864 1.3083425249 1.3034288679 1.2986427308 1.2982744716 1.2932494068 1.2932981202 1.2982744716 1.298412744 
1.2986427308 1.3080536622 1.3125249351 1.2573883874 1.3174450243 1.3146574578 1.3146574578 1.3160250086 1.3117361569 
1.2529855487 1.2529855487 1.2489767621 1.250281818 1.2464674903 1.2496071105 1.2579259606 1.2005084491 1.1948745525 
1.1890877264 1.1890877264 1.1120811821 1.1170411987 1.1150060144 1.1150060144 1.1150060144 1.1130862538 1.0601195669 
1.0500716873 1.0500716873 1.0397449679 0.98690354542 0.97793337814 0.98690354542 1.0397449679 1.0397449679 0.98028527008 
0.96186749983 0.95230085475 0.91444888554 0.91444888554 0.91444888554 0.91444888554 0.96186749983 0.95824160715 0.95824160715 
0.96753544848 0.96462040487 0.96462040487 0.95824160715 0.91118312878 0.88552728952 0.90894234839 0.95561105002 0.95561105002 
0.95561105002 0.95561105002 0.91465788316 0.95208542543 0.91118312878 0.91118312878 0.89164788056 0.8815539349 0.8446623174 
0.8446623174 0.8815539349 0.96145641651 0.91465788316 0.90515530529 0.89544609206 0.89164788056 0.8741857422 0.90786707957 