# vtk DataFile Version 5.1
vtk output
ASCII
DATASET POLYDATA
POINTS 2279 double
6.0750002414 38.070001513 125.5 6.0750002414 38.070001513 126 6.0750002414 38.070001513 126.5 
6.0750002414 38.070001513 127 6.0750002414 38.070001513 127.5 6.0750002414 38.070001513 128 
6.0750002414 38.070001513 128.5 6.0750002414 38.070001513 129 6.0750002414 38.205001518 129.5 
6.0750002414 38.205001518 130 6.2100002468 38.070001513 121 6.2100002468 38.070001513 121.5 
6.2100002468 38.070001513 122 6.2100002468 38.070001513 122.5 6.2100002468 38.070001513 123 
6.2100002468 38.070001513 123.5 6.2100002468 38.070001513 124 6.2100002468 38.070001513 124.5 
6.2100002468 38.070001513 125 6.2100002468 38.205001518 116.5 6.2100002468 38.205001518 117 
6.2100002468 38.205001518 117.5 6.2100002468 38.205001518 118 6.2100002468 38.205001518 118.5 
6.2100002468 38.205001518 119 6.2100002468 38.205001518 119.5 6.2100002468 38.205001518 120 
6.2100002468 38.205001518 120.5 6.2100002468 38.205001518 130.5 6.2100002468 38.205001518 131 
6.2100002468 38.205001518 131.5 6.3450002521 38.205001518 112 6.3450002521 38.205001518 112.5 
6.3450002521 38.205001518 113 6.3450002521 38.205001518 113.5 6.3450002521 38.205001518 114 
6.3450002521 38.205001518 114.5 6.3450002521 38.205001518 115 6.3450002521 38.205001518 115.5 
6.3450002521 38.205001518 116 6.3450002521 38.205001518 132 6.3450002521 38.205001518 132.5 
6.3450002521 38.340001523 133 6.3450002521 38.340001523 133.5 6.4800002575 38.205001518 107.5 
6.4800002575 38.205001518 108 6.4800002575 38.205001518 108.5 6.4800002575 38.205001518 109 
6.4800002575 38.205001518 109.5 6.4800002575 38.205001518 110 6.4800002575 38.205001518 110.5 
6.4800002575 38.205001518 111 6.4800002575 38.205001518 111.5 6.4800002575 38.340001523 134 
6.4800002575 38.340001523 134.5 6.4800002575 38.340001523 135 6.6150002629 38.340001523 103 
6.6150002629 38.340001523 103.5 6.6150002629 38.340001523 104 6.6150002629 38.340001523 104.5 
6.6150002629 38.340001523 105 6.6150002629 38.340001523 105.5 6.6150002629 38.340001523 106 
6.6150002629 38.340001523 106.5 6.6150002629 38.340001523 107 6.6150002629 38.340001523 135.5 
6.6150002629 38.340001523 136 6.6150002629 38.475001529 136.5 6.6150002629 38.475001529 137 
6.7500002682 38.340001523 100.5 6.7500002682 38.340001523 101 6.7500002682 38.340001523 101.5 
6.7500002682 38.340001523 102 6.7500002682 38.340001523 102.5 6.7500002682 38.475001529 137.5 
6.7500002682 38.475001529 138 6.7500002682 38.475001529 138.5 6.8850002736 38.475001529 139 
6.8850002736 38.475001529 139.5 6.8850002736 38.610001534 140 6.8850002736 38.610001534 140.5 
7.0200002789 38.610001534 141 7.0200002789 38.610001534 141.5 7.0200002789 38.610001534 142 
7.0200002789 38.74500154 142.5 7.1550002843 38.74500154 143 7.1550002843 38.74500154 143.5 
7.1550002843 38.880001545 144 7.1550002843 38.880001545 144.5 7.1550002843 38.880001545 145 
7.2900002897 39.01500155 145.5 7.2900002897 39.01500155 146 7.2900002897 39.01500155 146.5 
7.2900002897 39.150001556 147 7.2900002897 39.150001556 147.5 7.425000295 39.285001561 148 
7.425000295 39.285001561 148.5 7.425000295 39.285001561 149 7.425000295 39.420001566 149.5 
7.425000295 39.420001566 150 7.5600003004 39.420001566 150.5 7.5600003004 39.555001572 151 
7.5600003004 39.555001572 151.5 7.6950003058 39.420001566 152.5 7.6950003058 39.555001572 152 
7.8300003111 39.420001566 153 7.9650003165 39.420001566 153.5 8.1000003219 39.285001561 154.5 
8.1000003219 39.420001566 154 8.2350003272 39.285001561 155 8.3700003326 39.285001561 155.5 
8.505000338 39.150001556 156.5 8.505000338 39.285001561 156 8.6400003433 39.150001556 157 
8.7750003487 39.150001556 157.5 8.9100003541 39.01500155 158.5 8.9100003541 39.150001556 158 
9.0450003594 39.01500155 159 9.1800003648 39.01500155 159 9.3150003701 38.880001545 159.5 
9.4500003755 38.880001545 159.5 9.5850003809 38.880001545 159.5 9.7200003862 38.74500154 159.5 
9.8550003916 38.74500154 160 9.990000397 38.74500154 160 10.125000402 38.610001534 160 
10.260000408 38.610001534 160 10.395000413 38.610001534 160.5 10.530000418 38.475001529 160.5 
10.665000424 38.475001529 160.5 10.800000429 38.475001529 160.5 10.935000435 38.340001523 161 
11.07000044 38.340001523 161 11.205000445 38.340001523 161 11.340000451 38.205001518 161 
11.475000456 38.205001518 161.5 11.610000461 38.205001518 161.5 11.745000467 38.070001513 161.5 
11.880000472 38.070001513 161.5 12.015000477 38.070001513 162 12.150000483 37.935001507 162 
12.285000488 37.935001507 162 12.420000494 37.935001507 162 12.555000499 37.800001502 162.5 
12.555000499 52.110002071 123 12.555000499 52.110002071 123.5 12.555000499 52.110002071 124 
12.555000499 52.245002076 120.5 12.555000499 52.245002076 121 12.555000499 52.245002076 121.5 
12.555000499 52.245002076 122 12.555000499 52.245002076 122.5 12.690000504 37.800001502 162.5 
12.690000504 51.975002065 126 12.690000504 51.975002065 126.5 12.690000504 51.975002065 127 
12.690000504 51.975002065 127.5 12.690000504 51.975002065 128 12.690000504 51.975002065 128.5 
12.690000504 51.975002065 129 12.690000504 52.110002071 124.5 12.690000504 52.110002071 125 
12.690000504 52.110002071 125.5 12.690000504 52.245002076 119.5 12.690000504 52.245002076 120 
12.690000504 52.380002081 118.5 12.690000504 52.380002081 119 12.82500051 37.800001502 162.5 
12.82500051 51.705002055 132 12.82500051 51.705002055 132.5 12.82500051 51.705002055 133 
12.82500051 51.705002055 133.5 12.82500051 51.705002055 134 12.82500051 51.84000206 129.5 
12.82500051 51.84000206 130 12.82500051 51.84000206 130.5 12.82500051 51.84000206 131 
12.82500051 51.84000206 131.5 12.82500051 52.380002081 116.5 12.82500051 52.380002081 117 
12.82500051 52.380002081 117.5 12.82500051 52.380002081 118 12.960000515 37.665001497 163 
12.960000515 51.435002044 138 12.960000515 51.435002044 138.5 12.960000515 51.435002044 139 
12.960000515 51.570002049 135 12.960000515 51.570002049 135.5 12.960000515 51.570002049 136 
12.960000515 51.570002049 136.5 12.960000515 51.570002049 137 12.960000515 51.570002049 137.5 
12.960000515 51.705002055 134.5 12.960000515 52.380002081 114.5 12.960000515 52.380002081 115 
12.960000515 52.380002081 115.5 12.960000515 52.380002081 116 13.09500052 37.665001497 163 
13.09500052 51.300002038 141 13.09500052 51.300002038 141.5 13.09500052 51.300002038 142 
13.09500052 51.300002038 142.5 13.09500052 51.300002038 143 13.09500052 51.300002038 143.5 
13.09500052 51.435002044 139.5 13.09500052 51.435002044 140 13.09500052 51.435002044 140.5 
13.09500052 52.515002087 112 13.09500052 52.515002087 112.5 13.09500052 52.515002087 113 
13.09500052 52.515002087 113.5 13.09500052 52.515002087 114 13.230000526 37.665001497 163 
13.230000526 51.300002038 144 13.230000526 51.300002038 144.5 13.230000526 51.300002038 145 
13.230000526 51.300002038 145.5 13.230000526 51.300002038 146 13.230000526 51.300002038 146.5 
13.230000526 52.515002087 110 13.230000526 52.515002087 110.5 13.230000526 52.515002087 111 
13.230000526 52.515002087 111.5 13.230000526 53.190002114 60.5 13.230000526 53.190002114 61 
13.230000526 53.190002114 61.5 13.230000526 53.190002114 62 13.230000526 53.190002114 62.5 
13.230000526 53.190002114 63 13.230000526 53.190002114 63.5 13.230000526 53.190002114 64 
13.365000531 37.530001491 163 13.365000531 51.300002038 147 13.365000531 51.300002038 147.5 
13.365000531 51.300002038 148 13.365000531 51.300002038 148.5 13.365000531 51.300002038 149 
13.365000531 51.300002038 149.5 13.365000531 51.300002038 150 13.365000531 52.650002092 108 
13.365000531 52.650002092 108.5 13.365000531 52.650002092 109 13.365000531 52.650002092 109.5 
13.365000531 53.190002114 64.5 13.365000531 53.190002114 65 13.365000531 53.190002114 65.5 
13.365000531 53.190002114 66 13.365000531 53.190002114 66.5 13.365000531 53.190002114 67 
13.365000531 53.190002114 67.5 13.365000531 53.190002114 68 13.365000531 53.190002114 68.5 
13.365000531 53.190002114 69 13.365000531 53.190002114 69.5 13.365000531 53.190002114 70 
13.500000536 37.530001491 163.5 13.500000536 51.300002038 150.5 13.500000536 51.300002038 151 
13.500000536 51.300002038 151.5 13.500000536 51.300002038 152 13.500000536 51.300002038 152.5 
13.500000536 51.300002038 153 13.500000536 51.435002044 147.5 13.500000536 52.650002092 105.5 
13.500000536 52.650002092 106 13.500000536 52.650002092 106.5 13.500000536 52.650002092 107 
13.500000536 52.650002092 107.5 13.500000536 53.055002108 70.5 13.500000536 53.055002108 71 
13.500000536 53.055002108 71.5 13.500000536 53.055002108 72 13.500000536 53.055002108 72.5 
13.500000536 53.055002108 73 13.500000536 53.055002108 73.5 13.500000536 53.055002108 74 
13.500000536 53.055002108 74.5 13.500000536 53.055002108 75 13.500000536 53.055002108 75.5 
13.500000536 53.055002108 76 13.635000542 37.530001491 163.5 13.635000542 51.300002038 153.5 
13.635000542 51.300002038 154 13.635000542 51.300002038 154.5 13.635000542 51.300002038 155 
13.635000542 51.300002038 155.5 13.635000542 51.300002038 156 13.635000542 51.570002049 147.5 
13.635000542 51.705002055 147.5 13.635000542 52.785002097 103.5 13.635000542 52.785002097 104 
13.635000542 52.785002097 104.5 13.635000542 52.785002097 105 13.635000542 53.055002108 76.5 
13.635000542 53.055002108 77 13.635000542 53.055002108 77.5 13.635000542 53.055002108 78 
13.635000542 53.055002108 78.5 13.635000542 53.055002108 79 13.635000542 53.055002108 79.5 
13.635000542 53.055002108 80 13.635000542 53.055002108 80.5 13.635000542 53.055002108 81 
13.635000542 53.055002108 81.5 13.635000542 53.055002108 82 13.635000542 53.055002108 82.5 
13.770000547 37.395001486 163.5 13.770000547 51.300002038 156.5 13.770000547 51.300002038 157 
13.770000547 51.300002038 157.5 13.770000547 51.300002038 158 13.770000547 51.84000206 147.5 
13.770000547 51.975002065 147.5 13.770000547 52.785002097 101.5 13.770000547 52.785002097 102 
[...]
CELL_DATA 2278
SCALARS angle%0A[rad] double
LOOKUP_TABLE default
0 0.02699344294 0.02699344294 0.02699344294 0.02699344294 0.02699344294 0.02699344294 0.02699344294 0.033737195637 
0.029991006048 0.026983613979 0.026983613979 0.026983613979 0.026983613979 0.026983613979 0.026983613979 0.026983613979 0.026983613979 
0.038165226606 0.038165226606 0.038165226606 0.038165226606 0.026983613979 0.026983613979 0.026983613979 0.026983613979 0.026983613979 
0.026983613979 0.026983613979 0.026983613979 0.02699344294 0.02699344294 0.02699344294 0.02699344294 0.02699344294 0 
0 0 0 0 0 0 0.02699344294 0.02699344294 0.02699344294 
0.02699344294 0.02699344294 0.026983613979 0.026983613979 0.026983613979 0.026983613979 0.026983613979 0.026983613979 0.026983613979 
0.026983613979 0.038165226606 0.038165226606 0.038165226606 0.038165226606 0.026983613979 0.026983613979 0.026983613979 0.026983613979 
0.026983613979 0.026983613979 0.026983613979 0.026983613979 0.02699344294 0 0.053986885881 0.060348916429 0.060348916429 
0.085301784425 0.085301784425 0.085301784425 0.085301784425 0.11111073531 0.11111073531 0.060300643582 0.038116654675 0.053810620226 
0.053810620226 2.1073424255e-08 2.1073424255e-08 2.1073424255e-08 0.026866243494 0.026866243494 0.026866243494 2.1073424255e-08 0.037951058558 
0.026866243494 0.026866243494 2.1073424255e-08 0.026866243494 0.026866243494 0.026866243494 2.1073424255e-08 2.1073424255e-08 0.037951058558 
0.037951058558 2.1073424255e-08 2.1073424255e-08 0.026866243494 0.026866243494 0.026866243494 2.1073424255e-08 0.026866243494 0.026866243494 
0.037951058558 2.1073424255e-08 0.026866243494 0.026866243494 0.026866243494 2.1073424255e-08 2.1073424255e-08 0.026915082233 0.060191309939 
0.060191309939 0.053927990711 0.053927990711 0.10777784818 0.11106313358 0.085252131104 0.085252131104 0.085252131104 0.085224345466 
0.060296248577 0.060296248577 0.038116654675 0.038116654675 0.026944376732 0.026944376732 0.026944376732 2.1073424255e-08 2.1073424255e-08 
0.026944376732 0.026944376732 0.026944376732 0.026944376732 2.1073424255e-08 2.1073424255e-08 0.026944376732 0.026944376732 0.026944376732 
0.026944376732 2.1073424255e-08 2.1073424255e-08 2.1073424255e-08 0.026944376732 0.026944376732 0.026944376732 2.1073424255e-08 2.1073424255e-08 
0.026944376732 0.026944376732 0.026944376732 0.026944376732 0.038116674861 0.026944376732 1.4901161194e-08 1.4901161194e-08 0.053927990711 
0.053927990711 0.060283087213 0.060283087213 0.042574024397 0.048582182906 0.031040069096 0.032421929301 0.038137461491 0.048582182906 
0.062764734797 0.10719529028 0.053947605782 0.026954162841 0.026954162841 0 0.026954162841 0.026954162841 0.026954162841 
0.026954162841 0.026954162841 0 0.026954162841 0.026954162841 0.026954162841 0.026954191393 0.053869273626 0.084916448806 
0.096581650303 0.15104876148 0.17061961929 0.17811260336 0.21276069021 0.23524252421 0.26881241946 0.22482170849 0.22024809267 
0.16586835618 0.1727182429 0.14834325775 0.15870841394 0.20260324293 0.1916973561 0.24847575558 0.27471436519 0.34462990923 
0.34587852759 0.41738191011 0.50833662168 0.46035395992 0.48427369322 0.41464352343 0.40532622037 0.35663806771 0.38027065661 
0.33249853077 0.35582616517 0.27276019856 0.23845567128 0.22611487098 0.21490447121 0.14855561435 0.12261880261 0.12261880261 
0.098258071834 0.098124361471 0.057602214955 0 0.053108493016 0 0.053108493016 0 0.053108493016 
0.027074771402 0.034273198089 0.034273198089 0 0.062303272007 0.051551328921 0.026033721613 0 0.1354970274 
0.14190817408 0.044132684739 0.14190817408 0.16462570073 0.14190817408 0.18523436066 0.14190817408 0.16462570073 0.20566800032 
0.16134014394 0.1354970274 0.12174329557 0.28963028646 0.20022459416 0.13945429652 0.1048169855 0.28963028646 0.25443752786 
0.13563067401 0.057848919582 0 0.24996448772 0.045280348656 0.024362524686 0 0.030933628586 0.14772211238 
0.14772211238 0.14410862759 0.10249841737 0.3160755248 0.30195450967 0.28543604708 0.25719996286 0.15562977868 0.44565227795 
0.29893663288 0.27463603185 0.16934174637 0.16840932843 0.44565227795 0.43756806542 0.3968070869 0.29404929198 0.55167646819 
0.54355341697 0.52613471909 0.48742231251 0.38599671658 0.37358541082 0.34655288206 0.35840571939 0.31595394825 0.27388082415 
0.16746108237 0.14103615339 0.14910508771 0.11594427143 0.075555511975 0.12529226172 0.10397195548 0.23886503499 0.40642308825 
0.38317397577 0.35866063587 0.41740785111 0.33205143264 0.2605245774 0.23829750565 0.2605245774 0.22958168607 0.24363320829 
0.58080851392 0.26440315979 1.3400044433 1.5482128639 1.7940090865 1.9074029662 2.0138988818 1.6756732655 1.7707878099 
1.7263966518 1.6588076958 1.6018993806 1.3952880135 1.3136422496 1.237510258 1.1926753635 1.0113071417 0.74870442138 
0.64838724046 0.51690900637 0.42850875252 0.37949879434 0.24826734412 0.12634463803 0.087763188259 0.25727693337 0.67802804182 
0.58310073471 0 0.096856178002 0.1297069463 0.1196506375 0.089585873493 0.042272534539 0.069667678417 0.090709159877 
0.14201393187 0.080664029841 0.050709644974 0.083079238963 0.12564622879 0.13864601176 0.024392305742 0.069667678417 0.11633964617 
0.25635335939 0.15852974794 0.075209507516 0.11633964617 0.26803168408 0.68769588843 0.65901554888 0.26803168408 0.41385739149 
0.68475120308 0.45462206232 0.4352569579 0.50249093666 0.47227684598 0.50588246194 0.42568448085 0.41054636439 0.39977267327 
0.43501389292 0.42875226881 0.34998675812 0.33785325429 0.32969781683 0.33500253245 0.33388098166 0.24238236654 0.20714708596 
0.20158918617 0.19839500717 0.24343412092 0.14335076409 0.13510175829 0.10148035128 0.10185447435 0.10600993825 0.038927265955 
0.033852587968 0.033852587968 0.038927265955 0.020696635018 0 0 0 0.040344379989 0.033775175346 
0.033775175346 0.067396582357 0.073393763478 0.082668427918 0.073393763478 0.10659582747 0.10659582747 0.10659582747 0.18258111388 
0.13998863984 0.13998863984 0.17320037357 0.18272940049 0.2235519471 0.18272940049 0.24897209796 0.24897209796 0.27336125779 
0.21573113635 0.21573113635 0.21573113635 0.20686799137 0.18278604726 0.18278604726 0.16521567478 0.1856274646 0.14284441833 
0.10913530889 0.1417839678 0.16399220595 0.10895653952 0.076231125735 0.12362199742 0.11363687712 0.10249797059 0.033886581128 
0.090691101478 0.11305148068 0.090691101478 1.4901161194e-08 0.090691101478 0.11305148068 0.090691101478 1.4901161194e-08 0.090691101478 
0.11305148068 0.090691101478 1.4901161194e-08 0.090691101478 0.11305148068 0 0.12186049568 0.14365160601 0.065880148841 
0.15167516483 0.26679728707 0.29239721357 0.18879584575 0.23580943917 0.38395256981 0.41818117594 0.32261842407 0.37207908116 
0.51145752454 0.53663475818 0.44596011149 0.5708080959 0.59955461964 0.62339093332 0.55693697592 0.67220246878 0.52945000965 
0.49876555533 0.36584595198 0.34591452634 0.25676490844 0.22177111167 0.1800226638 0.14347394127 0.11621579143 0.1184739258 
0.132498815 0.15404567263 0.16948973689 0.19183669208 0.22914484418 0.2081787408 0.15126494333 0.17121883754 0.15627655614 
0.096590337566 0.096731717454 0.084867633717 0.03800639731 0.037917500604 0.026721226131 0.026721226131 0.026789011586 0.053558429449 
0.026721226131 0 0.059970078566 0.059970078566 0.026837203318 0.084867633717 0.060121637655 0.03800639731 0.037834569676 
0.026837203318 0.060121637655 0.060121637655 0.026866469683 0.026866469683 0.026837203318 0.038054528324 0.026866469683 0.026866469683 
0.038054528324 0.026866469683 0 0.026866469683 0.038054528324 0.038054528324 0.037951058558 0.026915082233 0.060086542873 
0.053810620226 0.053810620226 0.10777784818 0.10777784818 0.1204354593 0.097195734459 0.097195734459 0.085301784425 0.085301784425 
0.060348916429 0.060348916429 0.076330453212 0.060348916429 0.060348916429 0.038172174832 0.038172174832 0.038172174832 0.038172174832 
0.038172174832 0.038172174832 0.026983613979 0.026983613979 0.038172174832 0.038172174832 0.038172174832 0.038172174832 0.038172174832 
0.038172174832 0.038172174832 0.060318182082 0.026983613979 0 0 0 0 0 
0 0 0.038116654675 0.038137461491 0.026983613979 0.026983613979 0.026983613979 0.026983613979 0.026983613979 
0.026983613979 0.026983613979 0.038116654675 0.038116654675 0.026983613979 0.026983613979 0.026983613979 0.027149560348 0.027813352647 
0.029354567059 0.032421929301 0.038137461491 0.060300643582 0.02699344294 0.02699344294 0.02699344294 0.37649326242 0.26283236093 
0.1914521437 0.1285194269 0.067330305961 0.016182607225 0.060615726246 0.021044201129 0.08298760609 0.048396012197 0.085275851824 
0.19798647037 0.12251993147 0.22139576057 0.048396012197 0.036567293291 0.036567293291 0.036567293291 0.036567293291 0 
0.036567293291 0.036567293291 0.036567293291 0.036567293291 0.036567293291 0.036567293291 0.036567293291 0.036567293291 0 
0.036567293291 0.026188664224 0.026090476736 0.057683344719 0.021044201129 0.07187233264 0.030679297084 0.095290944791 0.051501858224 
0.047266656662 0.13383596067 0.15884263912 0.15884263912 0.092700667194 0.11225232198 0.17545851449 0.15255937002 0.076292503412 
0.11205226388 0.26440315979 0.24065082266 1.2661773425 0.55165498253 0.65272688496 0.67037034068 0.71002634122 0.65186911431 
0.59572871913 0.52939632472 0.42141920689 0.3217505544 0.19185545033 0.24735395557 0.024385409173 0.02325162281 0.47747878627 
0.32147645985 0.7697985109 0.13946378004 0.36241070061 0.26938753122 0.27066374935 0.26086697391 0.25920823216 0.34034416645 
0.34034416645 0.34559746239 0.36863346218 0.53105745246 0.63420739737 0.91586417979 0.48132851078 0.45655858893 1.3362282672 
1.357314629 1.3813852481 1.4156272859 1.3036736224 1.6907512258 1.4704645879 1.3180916364 1.1948776117 1.120482582 
1.0419366996 0.95969784494 1.229539031 1.129744332 1.0741585977 1.0332204682 1.2411041775 0.84302929385 0.15397807809 
0.29857869803 0.31571186352 0.30907819281 0.34309651663 0.31626476541 0.38680114701 0.35613492457 0.42200818585 0.42200818585 
0.43685153584 0.39094186647 0.34357896905 0.31708848905 0.28276838731 0.29852734115 0.24060135002 0.18540520454 0.20612471766 
0.13193150471 0.16278131865 0.095178318933 0.10957974595 0.077717649599 0.030849813933 0.047650985721 0.11921413009 0.14135386442 
0.16563114135 0.12362856162 0.13930207582 0.14912560332 0.16151648545 0.16151648545 0.11170712248 0.16304869598 0.14213837173 
0.24369434291 0.27023551596 0.29547070588 0.24255895651 0.27323393247 0.29120257875 0.27476954165 0.24692159962 0.29120257875 
0.27083564541 0.11051110531 0.15483274421 0.17798209402 0.12053876188 0.13036448696 0.13263116992 0.10894289788 0.1395333527 
0.13036448696 0.032255693493 0.032255693493 0.062538726889 0.026368505237 0.028990902414 0.026368505237 0.026368505237 0.028990902414 
0.026368505237 0.028990902414 0.045806614167 0.11808501724 0.027300160591 0.093066007281 0.14210641937 0.11938071222 0.14334367869 
0.20374088421 0.14641523971 0.17071571115 0.22199379372 0.19683226967 0.19683226967 0.29305970014 0.23167220898 0.26808297066 
0.22500950666 0.24252625248 0.17927317156 0.27390781877 0.20892892091 0.21893404702 0.21932165642 0.32135407976 0.33535086001 
0.3295150448 0.35147651981 0.39085718117 0.36582484068 0.48193410341 0.44035114896 0.53833342688 0.49636215152 0.51850534871 
0.16731457699 0.050572334132 0.50060687427 0.40469365406 0.32548617356 0.28916799288 0.077879166651 0.24941371176 0.15797200568 
0.22815987732 0.16894007187 0.11325854602 0.075726282884 0.060000296252 0.026789011586 0.03800639731 0 0.026789011586 
0.026789011586 0.026789011586 0 1.5054186547 1.5442500065 1.5596843681 1.602171097 1.5717414041 1.5424924549 
1.4995487983 1.4702779474 1.3529745797 1.3513758061 1.2424282848 1.12037731 1.1238333025 0.98654489849 1.1228219222 
1.0327631691 0.86856241216 0.91368223109 0.69522635604 0.40985137496 0.99755571206 0.86217880105 0.81043651807 0.78186781173 
1.381569993 1.2784623814 1.1633555182 1.0822637082 1.0038410345 1.0604271831 0.87411483679 0.83936544023 0.77089756135 
0.85229643421 0.70322507276 0.61065080913 0.53867856151 0.60001228412 0.43813636015 0.40947154481 0.38956237728 0.37141326778 
0.37801726194 0.21009009738 0.18740801265 0.13946378004 0.22121094612 0.11794848642 0.11297293153 0.10839858481 0.74541947627 
0.58453837129 0.72580182668 0.16443100748 0.16443100748 0.10927029237 0.1839129394 0.16443100748 0.16443100748 0.10927029237 
0.1839129394 0.16443100748 0.16443100748 0.10872151582 0.1839129394 0.16443100748 0.16443100748 0.16443100748 0.10927029237 
0.1839129394 0.16443100748 0.16443100748 0.36158318714 0.37347983129 0.39412544148 0.39412544148 0.39412544148 0.40188723969 
0.39412544148 0.49333072953 0.52243794503 0.65303124554 0.40188723969 0.50200281547 0.51830753878 0.5452091518 0.28484418684 
0.28484418684 0.38093200999 0.39864573885 0.13883019031 0.228280562 0.25356903257 0.27885777737 0.27885777737 0.11466769846 
0.14002758706 0.14002758706 0.15728796322 0.24650180978 0.10242843572 0.15383343359 0.2086851743 0.32328799175 0.13154495025 
0.18976950766 0.2529500247 0.37480033323 0.41911022827 0.24850083262 0.32642947201 0.48593163299 0.28437426844 0.36780993487 
0.48806689308 0.41365382036 0.55146390345 0.46183002809 0.026789011586 0.037834569676 0.026789011586 0 0.026789011586 
0.026789011586 0.026789011586 0 0.03800639731 0.026789011586 0.026789011586 0.037834569676 0.03800639731 0.053462669664 
0.026673658078 0.037917500604 0.084566334985 0.079984059211 0.059397892749 0.084153429731 0.10989821032 0.07952852835 0.10880209856 
0.059440763125 0.059440763125 0.079103425139 0.037251038658 0.75018773609 0.79638136547 0.61109570581 0.6406675892 0.66476478369 
0.91060511557 0.98885062905 0.94436066324 0.99831142776 0.73610316368 0.722226704 0.91295845417 0.51811437423 0.5633305862 
0.518964519 0.33671767551 0.30841913087 0.31634945094 0.19825017725 0.27542590999 0.53799499782 0.14754138677 0.25158667964 
0.55146390345 0.077915946376 0.1591202813 0.47482317839 0.077915946376 0.1591202813 0.47482317839 0.058684027866 0.17250866751 
0.48836465231 0.0677704695 0.10240563031 0.18812977346 0.05558338826 0.1591202813 0.2731904847 0.12836594243 0.29046891801 
0.47482317839 0.41439062961 0.79249049015 0.19330447941 0.16870430108 0.23264359122 0.16557068613 0.1967342981 0.11214566013 
0.1967342981 0.20932293994 0.11214566013 0.19965391355 0.068285015075 0.11280600924 0.079821088381 0.069082697255 0.059716853248 
0.028934995842 0.12877539856 0.05700889425 0.029913488554 0.036078618689 0.026763883226 0.026763883226 0.05700889425 0.029913488554 
0.05700889425 0.026763883226 0.026763883226 0.026763883226 0.026763883226 0.091384233091 0 0.073988501133 0.030451518854 
0.057964865604 0.063870116604 0.095989966912 0.16829325416 0.095989966912 0.16829325416 0.13710612426 0.17078354381 0.26677874305 
0.17078354381 0.26677874305 0.19306089374 0.26785300212 0.19306089374 0.26785300212 0.23006247942 0.19724643784 0.099069232965 
0.13873877654 0.13619343568 0.097667165821 0 0.097667165821 0.037131589029 0.037131589029 0.037131589029 0.026158933615 
0.026158933615 0.077292076466 0.055195727876 0.077292076466 0.059700935234 0.097667165821 0.087431343548 0.10847201365 0.097667165821 
0.038377953056 0.10847201365 0.061673886027 0.085666311906 0.085666311906 0.02740098523 0.069704030075 0.05492711073 0.037742356918 
0.037742356918 0.056604946644 0.056604946644 0.04881937622 0.030336267842 0.04881937622 0.072986545258 0.038301113594 0.098447042731 
0.1329845367 0.084279107066 0.15093754021 0.15995524128 0.2069858498 0.2069858498 0.2236195958 0.28655457045 0.25585665878 
0.32901421657 0.35377686745 0.25635762822 0.26731688093 0.20647477049 0.19524576063 0.10779546373 0.14248444692 0.098459268599 
0.037202299186 0.02615606074 0.036222733875 0.02615606074 0.03709960651 0.036222733875 0.025796953539 0.02615606074 0.025796953539 
0.036222733875 0.03709960651 0.02615606074 0.036222733875 0.022972991057 0.035408810075 0.0082819071411 0.043673723192 0.025796953539 
0.028871789697 0.054969341484 0.08279781562 0.15255937002 0.059067737517 0.037621024407 1.4901161194e-08 0.0369833665 0.02653318838 
0.0369833665 0.97545941765 1.0833407685 1.0860949849 1.0558833015 1.0630099619 0.92628160162 0.93059974522 0.94657720469 
0.94249970643 0.88168620177 0.86244696157 0.92343732738 0.90068965211 0.90090945546 0.8961456522 0.95011338854 0.91885014701 
1.0458360667 1.0435583524 1.1412270296 1.1152169563 1.0669945682 1.0480390802 1.0141578272 0.99122704997 0.93427101677 
1.0178659449 0.99051063706 0.97059966285 0.89509755152 0.88337540452 0.9620875313 0.95208598403 0.86192917541 0.85391979404 
0.83238214531 0.82920101484 0.91447211983 0.83273973827 0.82259176502 0.8277753371 0.81198599473 0.82843834482 0.82567039834 
0.85119987623 0.85157664234 0.76350622275 0.75390021548 0.84772240156 0.85411824614 0.79702406803 0.80187076733 0.80632859964 
0.80632859964 0.89641241046 0.90325520307 0.92266950736 0.70071777796 0.76813555064 0.78352185374 0.78993825263 0.59537060551 
0.65824491491 0.67642892439 0.67813912521 0.5789114156 0.57376605664 0.59356958198 0.61982081997 0.44184813522 0.43638602437 
0.43638602437 0.51139084713 0.34255641826 0.37148951409 0.39604931597 0.4181820251 0.33650718516 0.36571625136 0.39867964606 
0.48024581938 0.42021172132 0.45163333878 0.48603621256 0.5179803645 0.40556292417 0.39742248285 0.3187733824 0.30766643229 
0.27044833813 0.29340735844 0.23958717452 0.22549146237 0.15520656111 0.15074624712 0.084323073039 0.064138227508 0.041856164755 
0.011420345106 0.049262406656 0.02150559729 0.062543449145 0.043325241135 0.17753957909 0.02804991446 0.21945923054 0.02804991446 
0.93623290179 0.7419439518 0.73601911483 0.6763760959 0.58890171856 0.58647004783 0.49510179077 0.5654452381 0.42603303915 
0.36082257305 0.32184436212 0.26250414251 0.22233040358 0.16521862569 0.20821618367 0.092790353638 0.066767227195 0.11092847641 
0.074829407134 0.13017079601 0.092260913569 0.20100713349 0.12877539856 0.036514484989 0.23325419099 0.16309725104 0.32129519051 
0.28350405357 0.33900159338 0.28350405357 0.19172219092 0.36757260286 0.30109171094 0.19172219092 0.19172219092 0.22111636918 
0.19172219092 0.15555109554 0.15940253353 0.1848353239 0.15555109554 0.12173722567 0.057107668214 0.12173722567 0 
0.11003760377 0.14122714064 0.15365284632 0.21728798898 0.25057652609 0.31462394056 0.26364339729 0.27193305826 0.33345927304 
0.3958186788 0.36752940359 0.40320489377 0.41568960551 0.49086294798 0.45048297186 0.48508461067 0.37293621248 0.47119377301 
0.34449955826 0.34449955826 0.15415223432 0.22091204036 0.21509713874 0.11860854914 0.047280613553 0.082196749039 0.035314609452 
0.035314609452 0.035314609452 0.026688900509 0.026688900509 0.035314609452 0.035314609452 0.026688900509 0.026688900509 0.035314609452 
0.035314609452 0.026219682914 0.026219682914 0.091902171001 0.083009492051 0.11838603907 0.15914209654 0.22931637088 0.20284199785 
0.23823390988 0.25179872612 0.29495920131 0.29730243232 0.27530967512 0.23949962426 0.21684910096 0.17925552158 0.15164429397 
0.11719743974 0.094801911908 0.059178093546 0.037509590379 0 0 0.037834569676 0 0 
0 0.05994773177 0.05994773177 0.084916448806 0.12024398035 0.14484489512 0.14484489512 0.14507780373 0.21672921097 
0.21672921097 0.018376143866 0.014745149157 0.040803486532 0.24014169442 0.15690984728 0.039584160812 0.026156054708 0.18019396265 
0.13450614824 0.11989771407 0.075957913949 0.041166126655 0.039187660967 0.095235821013 0.075957913949 0.026759464332 0.026837456221 
0.037788137762 0.037726723834 0.11600463648 0.037788137762 0.037726723834 0.026596308961 0.026596308961 1.4901161194e-08 0.026596308961 
0.026837456221 0.037726723834 0.037788137762 0.037726723834 0.037788137762 0.037726723834 2.1073424255e-08 0.079186016605 0.30056840995 
0.19889985356 0.14750953526 0.27415105768 0.16531615611 0.12167276202 0.10002392024 0.14077488911 0.067445541824 0.026751948367 