# vtk DataFile Version 5.1
vtk output
ASCII
DATASET POLYDATA
POINTS 16881 double
4.5900001824 32.940001309 4.5 4.5900001824 33.075001314 4.5 4.5900001824 33.21000132 4.5 
4.5900001824 33.345001325 4.5 4.5900001824 33.48000133 4.5 4.5900001824 33.615001336 4.5 
4.5900001824 33.750001341 4.5 4.5900001824 33.885001346 4.5 4.5900001824 34.020001352 4.5 
4.5900001824 34.155001357 4.5 4.5900001824 34.290001363 4.5 4.5900001824 34.425001368 4.5 
4.5900001824 34.560001373 4.5 4.5900001824 34.695001379 4.5 4.5900001824 34.830001384 4.5 
4.5900001824 34.965001389 4.5 4.5900001824 35.100001395 4.5 4.5900001824 35.2350014 4.5 
4.5900001824 35.370001405 4.5 4.5900001824 35.505001411 4.5 4.7250001878 30.780001223 4.5 
4.7250001878 30.915001228 4.5 4.7250001878 31.050001234 4.5 4.7250001878 31.185001239 4.5 
4.7250001878 31.320001245 4.5 4.7250001878 31.45500125 4.5 4.7250001878 31.590001255 4.5 
4.7250001878 31.725001261 4.5 4.7250001878 31.860001266 4.5 4.7250001878 31.995001271 4.5 
4.7250001878 32.130001277 4.5 4.7250001878 32.265001282 4.5 4.7250001878 32.400001287 4.5 
4.7250001878 32.535001293 4.5 4.7250001878 32.670001298 4.5 4.7250001878 32.805001304 4.5 
4.7250001878 35.640001416 4.5 4.7250001878 35.775001422 4.5 4.7250001878 35.910001427 4.5 
4.7250001878 36.045001432 4.5 4.7250001878 36.180001438 4.5 4.7250001878 36.315001443 4.5 
4.8600001931 29.835001186 4.5 4.8600001931 29.970001191 4.5 4.8600001931 30.105001196 4.5 
4.8600001931 30.240001202 4.5 4.8600001931 30.375001207 4.5 4.8600001931 30.510001212 4.5 
4.8600001931 30.645001218 4.5 4.8600001931 36.450001448 4.5 4.8600001931 36.585001454 4.5 
4.8600001931 36.720001459 4.5 4.8600001931 36.855001464 4.5 4.9950001985 28.755001143 4.5 
4.9950001985 28.890001148 4.5 4.9950001985 29.025001153 4.5 4.9950001985 29.160001159 4.5 
4.9950001985 29.295001164 4.5 4.9950001985 29.430001169 4.5 4.9950001985 29.565001175 4.5 
4.9950001985 29.70000118 4.5 4.9950001985 36.99000147 4.5 4.9950001985 37.125001475 4.5 
4.9950001985 37.260001481 4.5 4.9950001985 37.395001486 4.5 5.1300002038 27.6750011 4.5 
5.1300002038 27.810001105 4.5 5.1300002038 27.94500111 4.5 5.1300002038 28.080001116 4.5 
5.1300002038 28.215001121 4.5 5.1300002038 28.350001127 4.5 5.1300002038 28.485001132 4.5 
5.1300002038 28.620001137 4.5 5.1300002038 37.530001491 4.5 5.1300002038 37.665001497 4.5 
5.1300002038 37.800001502 4.5 5.1300002038 37.935001507 4.5 5.2650002092 26.865001068 4.5 
5.2650002092 27.000001073 4.5 5.2650002092 27.135001078 4.5 5.2650002092 27.270001084 4.5 
5.2650002092 27.405001089 4.5 5.2650002092 27.540001094 4.5 5.2650002092 38.070001513 4.5 
5.2650002092 38.205001518 4.5 5.2650002092 38.340001523 4.5 5.2650002092 38.475001529 4.5 
5.2650002092 44.010001749 66 5.2650002092 44.145001754 65.5 5.4000002146 26.595001057 4.5 
5.4000002146 26.730001062 4.5 5.4000002146 38.610001534 4.5 5.4000002146 38.74500154 4.5 
5.4000002146 38.880001545 4.5 5.4000002146 39.01500155 4.5 5.4000002146 43.875001743 66 
5.4000002146 44.28000176 65 5.5350002199 26.325001046 4.5 5.5350002199 26.460001051 4.5 
5.5350002199 39.150001556 4.5 5.5350002199 39.285001561 4.5 5.5350002199 39.420001566 4.5 
5.5350002199 39.555001572 4.5 5.5350002199 43.740001738 66 5.5350002199 44.415001765 65 
5.6700002253 26.055001035 4.5 5.6700002253 26.190001041 4.5 5.6700002253 35.370001405 115 
5.6700002253 35.505001411 115 5.6700002253 35.640001416 115 5.6700002253 35.775001422 115 
5.6700002253 39.690001577 4.5 5.6700002253 39.825001583 4.5 5.6700002253 39.960001588 4.5 
5.6700002253 40.095001593 4.5 5.6700002253 43.740001738 66 5.6700002253 44.55000177 65 
5.6700002253 46.575001851 66.5 5.6700002253 46.710001856 66.5 5.6700002253 46.845001861 66.5 
5.8050002307 25.785001025 4.5 5.8050002307 25.92000103 4.5 5.8050002307 34.830001384 115.5 
5.8050002307 34.965001389 115.5 5.8050002307 35.100001395 115.5 5.8050002307 35.2350014 115.5 
5.8050002307 40.230001599 4.5 5.8050002307 40.365001604 4.5 5.8050002307 40.500001609 4.5 
5.8050002307 40.635001615 4.5 5.8050002307 43.740001738 66.5 5.8050002307 46.035001829 66.5 
5.8050002307 46.170001835 66.5 5.8050002307 46.30500184 66.5 5.8050002307 46.440001845 66.5 
5.8050002307 46.980001867 66.5 5.8050002307 47.115001872 66.5 5.940000236 25.515001014 4.5 
5.940000236 25.650001019 4.5 5.940000236 34.290001363 116 5.940000236 34.425001368 116 
5.940000236 34.560001373 116 5.940000236 34.695001379 116 5.940000236 36.045001432 110.5 
5.940000236 36.180001438 110.5 5.940000236 36.315001443 110.5 5.940000236 36.450001448 110.5 
5.940000236 36.585001454 110.5 5.940000236 36.720001459 110.5 5.940000236 36.855001464 110.5 
5.940000236 36.99000147 110.5 5.940000236 40.77000162 4.5 5.940000236 40.905001625 4.5 
5.940000236 41.040001631 4.5 5.940000236 41.175001636 4.5 5.940000236 43.605001733 66.5 
5.940000236 45.090001792 66.5 5.940000236 45.225001797 66.5 5.940000236 45.360001802 66.5 
5.940000236 45.495001808 66.5 5.940000236 45.630001813 66.5 5.940000236 45.765001819 66.5 
5.940000236 45.900001824 66.5 5.940000236 47.250001878 66 6.0750002414 25.245001003 4.5 
6.0750002414 25.380001009 4.5 6.0750002414 33.615001336 116.5 6.0750002414 33.750001341 116.5 
6.0750002414 33.885001346 116.5 6.0750002414 34.020001352 116.5 6.0750002414 34.155001357 116.5 
6.0750002414 35.910001427 110.5 6.0750002414 37.125001475 110 6.0750002414 37.260001481 110 
6.0750002414 37.395001486 110 6.0750002414 37.530001491 110 6.0750002414 37.665001497 110 
6.0750002414 41.310001642 4.5 6.0750002414 41.445001647 4.5 6.0750002414 41.580001652 4.5 
6.0750002414 41.715001658 4.5 6.0750002414 43.605001733 66.5 6.0750002414 44.685001776 67 
6.0750002414 44.820001781 67 6.0750002414 44.955001786 67 6.0750002414 47.385001883 66 
6.2100002468 24.975000992 4.5 6.2100002468 25.110000998 4.5 6.2100002468 33.48000133 117 
6.2100002468 35.775001422 111 6.2100002468 37.800001502 109.5 6.2100002468 37.935001507 109.5 
6.2100002468 38.070001513 109.5 6.2100002468 38.205001518 109.5 6.2100002468 38.340001523 109.5 
6.2100002468 41.850001663 4.5 6.2100002468 41.985001668 4.5 6.2100002468 42.120001674 4.5 
6.2100002468 42.255001679 4.5 6.2100002468 43.470001727 66.5 6.2100002468 43.740001738 67 
6.2100002468 43.875001743 67 6.2100002468 44.010001749 67 6.2100002468 44.145001754 67 
6.2100002468 44.28000176 67 6.2100002468 44.415001765 67 6.2100002468 44.55000177 67 
6.2100002468 47.520001888 66 6.2100002468 47.655001894 66 6.3450002521 24.705000982 4.5 
6.3450002521 24.840000987 4.5 6.3450002521 33.345001325 117 6.3450002521 35.640001416 111.5 
6.3450002521 38.475001529 109 6.3450002521 38.610001534 109 6.3450002521 38.74500154 109 
6.3450002521 38.880001545 109 6.3450002521 39.01500155 109 6.3450002521 42.390001684 4.5 
6.3450002521 42.52500169 4.5 6.3450002521 42.660001695 4.5 6.3450002521 42.795001701 4.5 
6.3450002521 43.335001722 67 6.3450002521 43.605001733 67 6.3450002521 47.790001899 66 
6.4800002575 24.435000971 4.5 6.4800002575 24.570000976 4.5 6.4800002575 33.21000132 117.5 
6.4800002575 35.505001411 111.5 6.4800002575 39.150001556 109 6.4800002575 39.285001561 109 
6.4800002575 39.420001566 109 6.4800002575 39.555001572 109 6.4800002575 42.930001706 4.5 
6.4800002575 42.930001706 67 6.4800002575 43.065001711 4.5 6.4800002575 43.065001711 67 
6.4800002575 43.200001717 4.5 6.4800002575 43.200001717 67 6.4800002575 43.335001722 4.5 
6.4800002575 43.335001722 67 6.4800002575 43.470001727 67 6.4800002575 47.925001904 65.5 
6.6150002629 24.16500096 4.5 6.6150002629 24.300000966 4.5 6.6150002629 33.21000132 117.5 
6.6150002629 35.505001411 111.5 6.6150002629 39.690001577 108.5 6.6150002629 39.825001583 108.5 
6.6150002629 39.960001588 108.5 6.6150002629 40.095001593 108.5 6.6150002629 40.230001599 108.5 
6.6150002629 42.390001684 67 6.6150002629 42.52500169 67 6.6150002629 42.660001695 67 
6.6150002629 42.795001701 67 6.6150002629 43.470001727 4.5 6.6150002629 43.605001733 4.5 
6.6150002629 43.740001738 4.5 6.6150002629 43.875001743 4.5 6.6150002629 48.06000191 65.5 
6.7500002682 23.89500095 4.5 6.7500002682 24.030000955 4.5 6.7500002682 33.075001314 117.5 
6.7500002682 35.370001405 111.5 6.7500002682 40.365001604 108 6.7500002682 40.500001609 108 
6.7500002682 40.635001615 108 6.7500002682 40.77000162 108 6.7500002682 40.905001625 108 
6.7500002682 41.850001663 67 6.7500002682 41.985001668 67 6.7500002682 42.120001674 67 
6.7500002682 42.255001679 67 6.7500002682 44.010001749 4.5 6.7500002682 44.145001754 4.5 
6.7500002682 44.28000176 4.5 6.7500002682 48.195001915 65.5 6.7500002682 48.33000192 65.5 
6.8850002736 23.625000939 4.5 6.8850002736 23.760000944 4.5 6.8850002736 26.865001068 44.5 
6.8850002736 27.000001073 44 6.8850002736 33.075001314 117.5 6.8850002736 35.2350014 111.5 
6.8850002736 41.040001631 107.5 6.8850002736 41.175001636 67 6.8850002736 41.175001636 107.5 
6.8850002736 41.310001642 67 6.8850002736 41.310001642 107.5 6.8850002736 41.445001647 67 
6.8850002736 41.445001647 107.5 6.8850002736 41.580001652 67 6.8850002736 41.580001652 107.5 
6.8850002736 41.715001658 67 6.8850002736 44.415001765 4.5 6.8850002736 44.55000177 4.5 
6.8850002736 44.685001776 4.5 6.8850002736 44.820001781 4.5 6.8850002736 48.465001926 65.5 
7.0200002789 23.085000917 4.5 7.0200002789 23.220000923 4.5 7.0200002789 23.355000928 4.5 
7.0200002789 23.490000933 4.5 7.0200002789 26.325001046 46 7.0200002789 26.460001051 45.5 
7.0200002789 26.595001057 45 7.0200002789 26.730001062 44.5 7.0200002789 27.135001078 43.5 
7.0200002789 27.270001084 43 7.0200002789 32.940001309 76.5 7.0200002789 32.940001309 117.5 
7.0200002789 33.075001314 76.5 7.0200002789 33.21000132 76.5 7.0200002789 33.345001325 76.5 
7.0200002789 33.48000133 76 7.0200002789 33.615001336 76 7.0200002789 33.750001341 75.5 
7.0200002789 33.885001346 75.5 7.0200002789 34.020001352 75.5 7.0200002789 34.155001357 75.5 
[...]
CELL_DATA 16880
SCALARS angle%0A[rad] double
LOOKUP_TABLE default
0 1.7990804071 1.6915183924 1.5171464923 1.3952587209 1.235948127 1.1276902815 1.0284246708 0.9425501358 
0.8376252655 0.77171515204 0.69960602985 0.64804776097 0.60013973225 0.55487526965 0.52237994174 0.48912596548 0.47135844291 
0.44284479258 0.44036022761 0.41504444631 0.40571312916 0.38361632998 0.3931277828 0.37297580707 0.39295323624 0.37435873315 
0.37644188418 0.35953071265 0.38315232883 0.31595162177 0.35327297964 0.33940811483 0.34000410491 0.32767933868 0.30175322042 
0.30175322042 0.27522544822 0.27522544822 0.32926920971 0.32926920971 0.30274143751 0.27522544822 0.26461360168 0.23811378241 
0.23811378241 0.21109333322 0.2656297717 0.23860932251 0.23860932251 0.21109333322 0.21109333322 0.20291020983 0.17562966008 
0.17562966008 0.20476939159 0.20476939159 0.17708916682 0.17708916682 0.17070966804 0.14339405947 0.17037511066 0.19739555985 
0.19739555985 0.16977827397 0.16977827397 0.1418970546 0.16891750379 0.16577666025 0.13842785777 0.13842785777 0.13842785777 
0.16615572642 0.16615572642 0.16615572642 0.13863973713 0.16628246378 0.16864652557 0.22131444235 0.22131444235 0.24866324483 
0.25255427578 0.25255427578 0.22503828649 0.22503828649 0.25291950586 0.25291950586 0.25291950586 0.25291950586 0.28053679174 
0.28053679174 0.27829965901 0.25139706023 0.27871266879 0.28509216757 0.28509216757 0.28509216757 0.28509216757 0.25811111638 
0.2310906672 0.2310906672 0.2310906672 0.25877089196 0.25877089196 0.2033200306 0.2033200306 0.23100025537 0.23100025537 
0.17559216195 0.17559216195 0.20327238672 0.20327238672 0.14558537352 0.14794943531 0.14811367079 1.1136940482 1.2776510172 
1.1724049265 1.0276821623 0.9455208896 0.83496615965 0.7763220662 0.69178448334 0.64945405313 0.5862255174 0.55636489429 
0.5068995423 0.46546610419 0.44819665124 0.43264001551 0.39964401601 0.39478094439 0.26737397393 0.2681420938 0.23395636367 
0.23315348535 0.21003145079 0.22758881127 0.20642833918 0.22078551664 0.20148317787 0.20792726806 0.19035480248 0.21854617384 
0.18666571729 0.22309117652 0.20916427297 0.2535651778 0.21346934451 0.21346934451 0.23065210189 0.23065210189 0.20897020371 
0.25002730928 0.24595054826 0.23360951958 0.23360951958 0.23360951958 0.21208410229 0.2301650451 0.24929901062 0.22797046777 
0.22346525064 0.24065082266 0.25817522991 0.23518365245 0.28715329089 0.29077389464 0.30671986414 0.30671986414 0.28888575277 
0.28888575277 0.28815719424 0.27854629517 0.29936504082 0.29936504082 0.28887614142 0.28887614142 0.30573184785 0.28887614142 
0.2635998876 0.2635998876 0.2635998876 0.2635998876 0.26944243579 0.26225182481 0.24899773324 0.25563368632 0.25845102532 
0.26240145285 0.18131691924 0.18091304708 0.1674491528 0.17869469301 0.11256127644 0.11411709299 0.11622762129 0.1191081023 
0.11192954391 0.11132017213 0.11101933914 0.10957447041 0.10850522002 0.10857845999 0.15286592393 0.15286592393 0.13644914549 
0.13644914549 0.13644914549 1.0932382002 0.87580102884 0.6330112186 0.47316848203 0.34988185879 0.36925034698 0.36665877353 
0.33718767635 0.40078647398 0.36195470477 0.43456163534 0.46498138818 0.44336065921 0.58031069043 0.54397141187 0.5579660054 
0.52474150755 0.71832094695 0.71080045901 0.70881481545 0.68469863245 0.58221040779 0.47582265682 0.45481848644 0.55574142702 
0.53691092254 0.51928390045 0.457164625 0.35193649169 0.31774807109 0.31827380633 0.31276090237 0.36314452646 0.30610732973 
0.20666606505 0.17316915977 0.17316915977 0.19185788688 0.21540191231 0.24239823339 0.12805120911 0.16784646242 0.1848773231 
0.2892782089 0.4211420658 0.45051810552 0.53072862527 0.55442903483 0.38434538083 0.42426108725 0.4645066649 0.61199423137 
0.6704157883 0.69536910063 0.72108493697 0.7592098365 0.57488857999 0.60460909731 0.67061199165 0.80396470322 0.65739790349 
0.68238312856 0.51999516489 0.49076128789 0.51567337662 0.34805730994 0.25128825889 0.29863896781 0.19229250863 0.072789985067 
0.11283929613 0.091521539294 0.1007199908 0.025218199067 0.096762328858 0.071019738133 0.18621553703 0.21146127434 0.18621553703 
0.26666397535 0.36727345725 0.34216230822 0.39420603437 0.50931807836 0.49233581107 0.65857857177 0.53083612819 0.48802175156 
0.60946941073 0.56468610985 0.56468610985 0.44713681811 0.38524757544 0.30799319341 0.34541255724 0.32702376248 0.28395548166 
0.2413103626 0.21770193211 0.21770193211 0.13763239138 0.047531338754 0.064767290019 0.076756369559 0.066087454712 0.15497413294 
0.19528204007 0.27168451454 0.30937051743 0.43286414339 0.29281417466 0.36201907282 0.46914402115 0.46914402115 0.52448442139 
0.37396077038 0.43424105465 0.47280811953 0.41820430388 0.42390417014 0.44782770658 0.35380424905 0.37422250988 0.18171162956 
0.18831198422 0.14247006734 0.15602944204 0.059344938877 0.031101225101 0.15243329326 0.15602944204 0.23844360949 0.20104937019 
0.33052341657 0.28673117415 0.45342995937 0.40942708628 0.38561667625 0.25597383286 0.37422250988 0.3206730763 0.2986776142 
0.25135061363 0.36148913649 0.3124871097 0.26368902674 0.21562415006 0.34624765877 0.29558767555 0.20057955128 0.1329886388 
0.072427146981 0.24485503423 0.17627848719 0.10379673563 0.035919672442 0.30858346468 0.22791650914 0.12104663622 0.11415625578 
0.79493796179 0.70607378485 0.70607378485 0.9145441006 0.83649358099 0.77059387549 0.68192756674 0.50751512327 0.43672332334 
0.36176959281 0.32466621004 0.25581631846 0.18381093133 0.048318893547 0.053908157599 0.05450835738 0.075999157667 0.03006837117 
0.028349727907 0.059758297912 0.21146365257 0.072248541393 0.059935262625 0.10435733056 0.089842952158 0.14324501784 0.1848348924 
0.073183438395 0.090436029659 0.052816755892 0.075436763564 0.059421181911 0.096030498196 0.051407492097 0.026750893396 0.13224159792 
0 0.043904211938 0.0065702878792 0.0075260325488 0.017488209426 0 0.039193518236 0.017488209426 0.026416002513 
0.10310710873 0.084186695564 0.084186695564 0.10999779382 0.059758297912 0.059758297912 0.084638093885 0.084638093885 0.06002156835 
0.026905366907 0.059969286415 0.038026843819 0.038026843819 0.026866243494 0.026866243494 0.026866243494 2.1073424255e-08 0.026866243494 
0.035914691465 0.015023970385 0.044813002566 0.057337448077 0.075834365359 0.03006837117 0.044817573449 0.084638093885 0.21146365257 
0.26752437441 0.44250291263 0.085301784425 0.15705672335 0.11438482084 0.11111073531 0.085079281462 0.085079281462 0.038054367628 
0.060086542873 0.037951058558 0.038054528324 0.026915082233 0 0.036223125977 0.042510362175 0.015804469546 0.012662024459 
0.053558429449 0.019003198655 0.036724508396 0.1186689757 0.2164722586 0.037951058558 0.026837203318 0.026837203318 0.048490672604 
0.06170971157 0.015804469546 0.036901537385 0.053558429449 0.019003198655 0.063126523919 0.13280214949 0.2164722586 0.17665313332 
0.20066779129 0.1782981111 0.16873254312 0.14728108386 0.12970206391 0.13795785466 0.076915225224 0.05098005557 0.03646381696 
0.081713019459 0.12127851266 0.14377389157 0.07767075312 0.018555248053 0.049618399512 0.11204772279 0.093383961422 0.10582465127 
0.13541002904 0.10631753994 0.084430794288 0.096271790732 0.16126490474 0.16982146499 0.1665602295 0.17855189486 0.16743892894 
0.20978624898 0.1853707358 0.19723316051 0.25348926207 0.23688809064 0.16973526743 0.1917622519 0.081053717099 0.096600871062 
0.19054454292 0.12062804483 0.026416002513 0.070846258611 0.056050042317 0.084038233537 0.14006635212 0.057774284836 0.041166126655 
0.070142161283 0.049503336372 0.037175280707 0.10360239256 0.083782824404 0.1083053871 0.21575872165 0.3458934263 0.16913163262 
0.13681347087 0.26424937888 0.19555928892 0.18388349802 0.20142734241 0.14437582912 0.15048339443 0.059505271199 0.058910677785 
0.15525143215 0.058910677785 0.23265268364 0.18025900951 0.18025900951 0.20464082412 0.18045272083 0.18045272083 0.12050498906 
0.12050498906 0.12050498906 0.085202728028 0.038137461491 0.026875944521 0.026875944521 0.026875944521 2.1073424255e-08 0.026905366907 
0.036506477782 0.036238425225 0.038628789203 0.045670754009 0.075834365359 0.068570388304 0.089842952158 0.15520541673 0.27554342791 
0.12887176969 0.076858663355 0.089842952158 0.1102497728 0.14324501784 0.11489940648 0.23287011971 0.19054454292 0.16973526743 
0.055421009745 0.056517905811 0.059758297912 0.11086736701 0.037624870358 0.037624870358 0.02679885251 0.059568572921 0.026749889395 
0.084638093885 0.1197423201 0.17948629041 0.17948629041 0.15641951605 0.15641951605 0.1202874685 0.1202874685 0.097138799067 
0.097138799067 0.097258169974 0.064380948968 0.043203794381 0.047059177728 0.052444497769 0.060318182082 0.072594773962 0.093718826816 
0.13686081664 0.26505775269 0.076330453212 0 0.02699344294 0.02699344294 0.02699344294 0.02699344294 0.02699344294 
0.02699344294 0.02699344294 0.02699344294 0.038165226606 0 0 0 0 0 
0.097044096901 0.026944376732 0.053810620226 0.060086542873 0.08481807764 0.08481807764 0.11049890831 0.11912582532 0.11433505318 
0.13910379483 0.15425413111 0.20983207908 0.26911933093 0.24275541706 0.27566208575 0.3269001499 0.38427915179 0.33399140933 
0.2840664026 0.28362697414 0.21569843054 0.20262914432 0.19035580945 0.18081494094 0.13571179856 0.1135071354 0.13411631299 
0.11685452908 0.067538104408 0.079428953326 0.10119258196 0.12514915412 0.093999937712 0.062335086521 0.057322301696 0.14480749938 
0.2394451111 0.069817240603 0 0.058239504121 0.063400851358 0.042160994353 0.065324990786 0.063788215359 0.036246780782 
0.056250964452 0.065487658209 0.044921659149 0.065324990786 0.083734549789 0.10554243606 0.056250964452 0.15607902145 0.21965340379 
0.25172101269 0.14025019697 0.17229614602 0.15224553628 0.14992111334 0.14404164589 0.061775847164 0.089054960092 0.053726679343 
0.20492327037 0.31124216092 0.25694101087 0.34585161003 0.29107174479 0.23797965727 0.33413007558 0.26705203702 0.18171162956 
0.12224688683 0.25975357696 0.20175595015 0.12794597531 0.11793028912 0.21922390567 0.057499235488 0.16476973503 0.47348435318 
0.39782167568 0.5824865843 0.54987236993 0.47580778264 0.47580778264 0.45152898917 0.42830821129 0.40610149858 0.31879313904 
0.31879313904 0.31879313904 0.340248459 0.3299266997 0.31899709039 0.31899709039 0.29844621158 0.27895883597 0.26047296069 
0.16592745558 0.16592745558 0.16592745558 0.41021038871 0.22251024607 0.21536092009 0.20805331555 0.2006311977 0.18745669719 
0.17546044321 0.13114466678 0.12862319193 0.13077670124 0.14258257581 0.13797416372 0.13369451482 0.12993702212 0.12695520923 
0.12506986908 0.12466771689 0.12618598496 0.13008107695 0.13831162848 0.15307294983 0.15110712339 0.13959534035 0.12743837036 
0.11507933527 0.10358476673 0.095249284403 0.094165984779 0.10527427491 0.13766893664 0.18967219354 0.25964948173 0.42779707923 
0.37124761996 0.37124761996 0.37124761996 0.37124761996 0.53112865235 0.37779795138 0.36631767459 0.35548566991 0.80715680111 
0.97731083781 1.108792452 0.51393838966 0.39040003324 0.39040003324 0.79496860993 0.76937841722 0.85730155686 0.85223058025 
0.70220687004 0.67190018834 0.64137367361 0.51842966647 0.67383465235 0.82457635202 0.59903540739 0.53710301448 0.69734647228 
0.90886575893 0.66733386295 0.67191777038 0.65198173719 0.53864822384 0.54709581665 0.30263968389 0.33006201211 0.39116476049 
0.54277248214 0.74751474437 0.72437053195 0.61788367516 0.5970522337 1.0633921967 0.98821741257 0.55303142639 1.8410377379 
0.77846864826 0.74005020417 0.6769171066 0.63952151947 0.60301190385 0.56752134976 1.5270992984 0.35877067027 0.28605144172 
0.25168997176 0.23860932251 0.22679884805 0.80262751357 1.0809300202 1.2653741787 1.1948893372 1.2401762183 1.0417623081 
1.4267012574 0.86497022482 1.5377072448 1.2758409794 0.88909399151 1.3523709492 1.1640675862 0.65594838885 1.0640804068 
0.51048049494 1.0884167777 1.0310094754 0.41237990945 1.0185679267 1.0429609459 0.42119445481 0.98589601475 0.94691890592 
0.40284338166 0.069678723998 0.10169180071 0.12700077869 0.14923981217 0.12000511855 0.061312382738 0.053535972442 0.14881438719 
0.032516871803 0.14641000367 0.19998495256 0.034765773365 0.14286062089 0.09967689714 0.11831860354 0.36650896757 0.31522709681 
0.38268498167 0.31767569297 0.25537326298 0.23714834916 0.25278514359 0.1478480733 0.16168672712 0.18417857049 0.073926442419 
0.12787987498 0.10303429333 0.2554854338 0.1138599657 1.1042131409 0.087474486499 0.034149941446 0.062661193949 0.087288742407 
0.0096711867753 0.092118164777 0.040412424162 0.082017032125 0.028923302426 0.11140868468 0.11501708482 0.15773954078 0.20460311151 
0.1841176772 0.32396263473 0.27471164433 0.17439893924 0.21909597976 0.29461638163 0.20512022859 0.17604424677 0.14553674536 
0.14160537161 0.093532789113 0.033580973654 0.10777526565 0.083038755066 0.085412924881 0.070426503902 0.1061360712 2.1073424255e-08 
0.02553483793 2.1073424255e-08 0.057584063059 0.024798771185 0.057969793315 0.036507377559 0.080359031889 0.1077778733 0.094735607331 
0.12839965848 0.11885373279 0.1501820371 0.16745488522 0.086830662988 0.18302814929 0.10191434589 0.10386546734 0.1515670581 
0.097649310808 0.19092623422 0.18891007177 0.081345914547 0.081345914547 0.12920648555 0.080487350789 0.11373333023 0.10670510612 
0.10570758656 0.079548884264 0.080384820243 0.055542289345 0.055542289345 0.055542289345 1.4901161194e-08 0.051205373016 0.01160194974 
0.050994196037 0.057027416411 0.054733361958 0.056297988362 0.055542289345 0.056962418044 0.079999006688 0.056962418044 0.1538032217 
0.25673389075 0.24135360771 0.24193474036 0.22380118036 0.21356243955 0.17846388798 0.15059389315 0.14371756536 0.11021269914 
0.084491115516 0.066013075235 0.021112510019 0.048152806737 0.074594457124 2.1073424255e-08 0.037084866745 0.13521018337 0.037084866745 
0.21318807457 0.27639295878 0.27227585375 0.26914435185 0.27809249085 0.22724900846 0.2504951741 0.21202041481 0.34514201166 
1.3327505002 0.24522419245 0.17695071872 0.050878228202 0.070426503902 0.037921642392 0.0036014293244 0.058755893013 0.025105828866 
0.012583718576 0.033527448944 0.077414667206 0.074511040933 0.047538506914 0.026711100674 0.036404747858 0.057733598508 0.026711100674 
0.057733598508 0.18337013837 0.25712135582 0.47597041397 0.29247956677 1.3103259069 0.025472201075 0.067357327033 0.085144478043 
0.055811676889 0.062362974991 0.055811676889 0.15149713165 0.18039305132 0.16095870223 0.18668976402 0.15557938617 0.1730048407 
0.10658929211 0.13039599039 0.078302106511 0.11679248751 0.052444955253 0.078966344799 0.037621024407 0.037483238814 0.025319029122 
0.029637928294 0.045898570136 0.044565932568 0.037483238814 0.029637928294 0.09157441144 0.084639198886 0.15615398149 0.25348926207 
0.17983335205 0.18251913127 0.15109293378 0.15560166217 0.13674820978 0.14504187157 0.038165226606 0.038165226606 0.02699344294 
0.02699344294 1.045122903 1.1669365462 1.125578569 1.0986244062 1.075625712 1.0375152657 1.163355358 1.1576462525 
1.1219593163 1.0930377616 0.95863370865 0.94624995408 0.87957450621 0.95459469157 0.92780853332 0.95135122675 0.88554649115 
0.88059063357 0.81605498002 0.74251576852 0.69337888127 0.67775604404 0.54720407033 0.53356368703 0.5708603059 0.55715276814 
0.54444178202 0.42751586534 0.37804881121 0.29551126343 0.29875419389 0.23955802384 0.23420985112 0.12051651067 0.12421991716 
0.052933100364 0.057509832437 0.025423719881 0.28504316959 0.27077907227 0.19526430517 0.17670010972 0.23975439085 0.17034239974 
0.22075270848 0.18377705958 0.15352416882 0.13186087592 0.14471183779 0.13186087592 0.071334580437 0.041315065346 0.021316308703 
0.12789744621 0.25292061481 0.26456920359 0.26456920359 0.26900909019 0.29049958544 0.084118169759 0.18261602837 0.19979956996 
0.24099323905 0.24099323905 0.24099323905 0.26335479149 0.28269535549 0.31652105375 0.32667891464 0.40914981168 0.49589189627 
0.51768480894 0.55855166603 0.51768480894 0.55855166603 0.34277110164 0.34597830771 0.3524800225 0.37439563933 0.34669757537 
0.31787642901 0.044432378107 0.044432378107 0.12060614921 0.16760264086 0.18511877188 0.31050251447 0.15570097085 0.16148131776 
0.19031269201 0.21626601271 0.32307112319 0.33408506068 0.20957759601 0.2147719888 0.24720620488 0.23656294626 0.31748690909 
0.37300525023 0.49274547926 0.32372548288 0.35019397114 0.38392941007 0.49177681221 0.53403994042 0.58122157022 0.7183453737 
0.75866310235 0.63328307875 0.67772493 0.71150359793 0.7493795353 0.74881386019 0.72738696541 0.61425038452 0.60498710861 
0.57016089544 0.52932516966 0.41699162728 0.39806092757 0.38435438504 0.32428627867 0.17967701047 0.2164231094 0.13121329387 
0.2201284383 0.1697258337 0.2121257495 0.21471672392 0.19023076348 0.13800000301 0.085635812771 0.17097201288 0.12135866169 
0.074386399442 0.12135866169 0.074386399442 0.073136627403 0.097282973728 0.094703438987 0.13153185556 0.16626325923 0.15495323106 
0.18500849783 0.22273115309 0.17478036439 0.22235614855 0.20167919667 0.095478857054 0.1100584814 0.1511743304 0.031846972245 
0.039616291657 0.063891381028 0.11339131159 0.026432402388 0 0.16130269193 0.11122381159 0.26631059147 0.29019711371 
0.26316655915 0.23687937198 0.29194183222 0.24578976416 0.16644492621 0.30620995411 0.25850888428 0.17591600034 0.15173823046 
0.17929088241 0.13077059167 0.10696697166 0.20970744138 0.16225955514 0.11656581573 0.06083475613 0.11656581573 0.095228584852 
0.12537709167 0.13344571168 0.13344571168 0.17789785989 0.20271369764 0.23513070183 0.23301303257 0.27070850861 0.29118341041 
0.31756605441 0.25864676137 0.2867554071 0.27330735023 0.2861314985 0.31216737977 0.32409910588 0.18643947339 0.15628494874 
0.20305551266 0.22202549297 0.096260632177 0.13982417684 0.16462957486 0.03160975295 0.05998018317 0.081827851104 0.23401305046 
0.1605003884 0.16766250962 0.15773618809 0.16447262786 0.22432226926 0.22432226926 0.22310424628 0.24010516572 0.19526948357 
0.22477920202 0.22409449413 0.26487994956 0.22477920202 0.2246410821 0.20165913788 0.20165913788 0.38493855447 0.32771249546 
0.28389375278 0.2607152838 0.47331837035 0.62103166809 0.60988244728 0.60988244728 0.81515965094 0.75619902436 0.85925551943 
0.85522021872 1.0388718978 0.97856339969 0.97837689504 0.95264109002 0.92800182114 0.90448179712 0.83571562368 0.8366363099 
0.80494751898 0.7830501627 0.76257805836 0.68202862305 0.69187102684 0.69227421513 0.67248610602 0.65474429367 0.63937895385 
0.52639516067 0.51087852664 0.49829896148 0.49000355102 0.38553953483 0.38255373974 0.37161019865 0.37696073623 0.41261410678 
0.32748892087 0.71329483968 0.76240080392 0.67903013802 0.75041376738 0.76759886432 0.96046388722 0.71069183039 0.79392837036 
0.95614516037 0.14811367079 0.089193612592 0.089193612592 0.11687383736 0.11687383736 0.061312393228 0.061312393228 0.088992617995 
1.1096239955 0.088992617995 0.033695107346 0.033695107346 0.061375332114 0.094040402272 0.084728990596 0.11231754609 0.22464301073 
0.27762634481 0.30267160958 0.38961017342 0.39644067378 0.4706448496 0.48299260796 0.50335571024 0.57065487453 0.58475317275 
0.58475317275 0.59238454809 0.60688136948 0.6357938281 0.6383247754 0.65506395162 0.65506395162 0.68347788639 0.79906269036 
0.79412692654 0.81496700885 0.83693576487 0.90913507612 0.90699232916 1.0811962921 1.0274470567 1.0051475671 0.97246995445 
0.94712321348 0.91948669475 0.78442721449 0.73266038758 0.69716421014 0.84183143371 0.78174080925 0.76681847791 0.74298143396 
0.7319367206 0.66832655846 0.56278566772 0.54009172073 0.40604759981 0.38625171958 0.39634199783 0.3844875264 0.36342777735 
0.36377869441 0.3598747259 0.38807529875 0.39838272566 0.39856678412 0.35268693449 0.35624589474 0.38950010825 0.40981987981 
0.40981987981 0.43613616251 0.40135773478 0.40135773478 0.37299519476 0.3587494891 0.33338586927 0.34005381099 0.3363198077 
0.30886429038 0.30886429038 0.28269535549 0.28269535549 0.21290856577 0.15122283786 0.1807704567 0.13713559756 0.16607356129 