# vtk DataFile Version 5.1
vtk output
ASCII
DATASET POLYDATA
POINTS 312 double
33.21000132 53.055002108 116.5 33.345001325 53.190002114 116 33.48000133 53.325002119 115.5 
33.615001336 53.325002119 115 33.750001341 53.460002124 115 33.885001346 53.59500213 114.5 
34.020001352 53.59500213 114 34.155001357 53.59500213 113.5 34.290001363 53.730002135 113 
34.290001363 53.730002135 113.5 34.425001368 53.86500214 112.5 34.560001373 54.000002146 112 
34.695001379 54.000002146 111 34.695001379 54.000002146 111.5 34.830001384 54.135002151 109 
34.830001384 54.135002151 109.5 34.830001384 54.135002151 110 34.830001384 54.135002151 110.5 
34.965001389 54.270002156 108.5 34.965001389 54.405002162 108 35.100001395 54.540002167 107.5 
35.100001395 54.675002173 107 35.2350014 54.810002178 105 35.2350014 54.810002178 105.5 
35.2350014 54.810002178 106 35.2350014 54.810002178 106.5 35.2350014 56.970002264 49 
35.2350014 56.970002264 49.5 35.2350014 56.970002264 50 35.2350014 56.970002264 50.5 
35.2350014 57.105002269 46 35.2350014 57.105002269 46.5 35.2350014 57.105002269 47 
35.2350014 57.105002269 47.5 35.2350014 57.105002269 48 35.2350014 57.105002269 48.5 
35.2350014 57.105002269 49 35.2350014 57.105002269 49.5 35.2350014 57.105002269 50 
35.2350014 57.105002269 50.5 35.2350014 57.240002275 46 35.370001405 54.945002183 104 
35.370001405 54.945002183 104.5 35.370001405 56.970002264 51 35.370001405 57.105002269 51 
35.370001405 57.105002269 51.5 35.370001405 57.37500228 45 35.370001405 57.37500228 45.5 
35.505001411 55.080002189 103 35.505001411 55.080002189 103.5 35.505001411 55.215002194 102.5 
35.505001411 55.350002199 101 35.505001411 55.350002199 101.5 35.505001411 55.350002199 102 
35.505001411 55.485002205 100 35.505001411 55.485002205 100.5 35.505001411 55.62000221 99 
35.505001411 55.62000221 99.5 35.505001411 57.105002269 52 35.505001411 57.510002285 44.5 
35.505001411 57.645002291 44 35.505001411 57.780002296 43.5 35.640001416 55.350002199 101 
35.640001416 55.350002199 101.5 35.640001416 55.350002199 102 35.640001416 55.755002216 98 
35.640001416 55.755002216 98.5 35.640001416 57.105002269 52.5 35.640001416 57.915002301 43 
35.775001422 55.890002221 97 35.775001422 55.890002221 97.5 35.775001422 56.025002226 97 
35.775001422 57.105002269 53 35.775001422 57.105002269 53.5 35.775001422 57.105002269 54 
35.775001422 58.050002307 42.5 35.775001422 58.185002312 42.5 35.775001422 58.320002317 42 
35.775001422 58.320002317 42.5 35.775001422 58.455002323 41.5 35.910001427 56.160002232 96.5 
35.910001427 57.240002275 54.5 35.910001427 58.590002328 41 35.910001427 58.725002334 40.5 
35.910001427 58.860002339 40 35.910001427 58.995002344 39.5 35.910001427 59.13000235 39 
35.910001427 59.13000235 40 35.910001427 59.265002355 38.5 35.910001427 59.265002355 39.5 
35.910001427 59.40000236 38 35.910001427 59.40000236 38.5 35.910001427 59.40000236 39 
35.910001427 59.535002366 36 35.910001427 59.535002366 36.5 35.910001427 59.535002366 37 
35.910001427 59.535002366 37.5 35.910001427 59.670002371 36 35.910001427 59.670002371 36.5 
35.910001427 59.670002371 37 36.045001432 56.295002237 95 36.045001432 56.295002237 95.5 
36.045001432 56.295002237 96 36.045001432 56.430002242 95 36.045001432 56.565002248 95 
36.045001432 56.700002253 66 36.045001432 56.700002253 66.5 36.045001432 56.700002253 67 
36.045001432 56.700002253 67.5 36.045001432 56.700002253 68 36.045001432 56.700002253 68.5 
36.045001432 56.700002253 69 36.045001432 56.700002253 69.5 36.045001432 56.835002258 70 
36.045001432 56.835002258 70.5 36.045001432 56.835002258 71 36.045001432 56.970002264 71.5 
36.045001432 56.970002264 72 36.045001432 56.970002264 72.5 36.045001432 57.240002275 55 
36.045001432 57.240002275 55.5 36.045001432 57.37500228 55 36.045001432 57.37500228 55.5 
36.045001432 59.535002366 33 36.045001432 59.535002366 33.5 36.045001432 59.535002366 34 
36.045001432 59.535002366 34.5 36.045001432 59.535002366 35 36.045001432 59.535002366 35.5 
36.045001432 59.670002371 33 36.045001432 59.670002371 33.5 36.045001432 59.670002371 34 
36.045001432 59.670002371 34.5 36.045001432 59.670002371 35 36.045001432 59.670002371 35.5 
36.180001438 56.700002253 65.5 36.180001438 56.700002253 66 36.180001438 56.700002253 66.5 
36.180001438 56.700002253 67 36.180001438 56.700002253 67.5 36.180001438 56.700002253 68 
36.180001438 56.700002253 68.5 36.180001438 56.700002253 94.5 36.180001438 56.835002258 64 
36.180001438 56.835002258 64.5 36.180001438 56.835002258 65 36.180001438 56.835002258 69 
36.180001438 56.835002258 69.5 36.180001438 56.835002258 70 36.180001438 56.835002258 70.5 
36.180001438 56.835002258 71 36.180001438 56.835002258 94 36.180001438 56.835002258 94.5 
36.180001438 56.970002264 73 36.180001438 56.970002264 73.5 36.180001438 56.970002264 74 
36.180001438 56.970002264 74.5 36.180001438 56.970002264 75 36.180001438 56.970002264 75.5 
36.180001438 56.970002264 76 36.180001438 56.970002264 76.5 36.180001438 56.970002264 77 
36.180001438 56.970002264 77.5 36.180001438 56.970002264 78 36.180001438 57.105002269 73 
36.180001438 57.105002269 73.5 36.180001438 57.105002269 74 36.180001438 57.105002269 74.5 
36.180001438 57.105002269 75 36.180001438 57.105002269 75.5 36.180001438 57.105002269 76 
36.180001438 57.105002269 76.5 36.180001438 57.105002269 77 36.180001438 57.240002275 56 
36.180001438 57.240002275 56.5 36.180001438 57.240002275 57 36.180001438 57.240002275 57.5 
36.180001438 57.37500228 56 36.180001438 57.37500228 56.5 36.180001438 59.535002366 32 
36.180001438 59.535002366 32.5 36.315001443 56.835002258 64 36.315001443 56.970002264 78.5 
36.315001443 56.970002264 93 36.315001443 56.970002264 93.5 36.315001443 57.105002269 58 
36.315001443 57.105002269 58.5 36.315001443 57.105002269 59 36.315001443 59.40000236 31.5 
36.450001448 56.835002258 64 36.450001448 56.970002264 59 36.450001448 56.970002264 59.5 
36.450001448 56.970002264 79 36.450001448 56.970002264 79.5 36.450001448 56.970002264 80 
36.450001448 56.970002264 80.5 36.450001448 56.970002264 90 36.450001448 56.970002264 90.5 
36.450001448 57.105002269 87 36.450001448 57.105002269 87.5 36.450001448 57.105002269 88 
36.450001448 57.105002269 90 36.450001448 57.105002269 90.5 36.450001448 57.105002269 91 
36.450001448 57.105002269 91.5 36.450001448 57.105002269 92 36.450001448 57.105002269 92.5 
36.450001448 59.40000236 31 36.450001448 59.40000236 31.5 36.585001454 56.835002258 64 
36.585001454 56.970002264 59.5 36.585001454 56.970002264 60 36.585001454 56.970002264 60.5 
36.585001454 56.970002264 61 36.585001454 56.970002264 61.5 36.585001454 56.970002264 62 
36.585001454 56.970002264 90 36.585001454 56.970002264 90.5 36.585001454 57.105002269 81 
36.585001454 57.105002269 81.5 36.585001454 57.105002269 82 36.585001454 57.105002269 86.5 
36.585001454 57.105002269 87 36.585001454 57.105002269 87.5 36.585001454 57.105002269 89 
36.585001454 57.105002269 89.5 36.585001454 57.105002269 90 36.585001454 57.105002269 90.5 
36.585001454 59.40000236 30 36.585001454 59.40000236 30.5 36.720001459 56.835002258 62.5 
36.720001459 56.835002258 63 36.720001459 56.835002258 63.5 36.720001459 57.105002269 82.5 
36.720001459 57.105002269 85 36.720001459 57.105002269 85.5 36.720001459 57.105002269 86 
36.720001459 57.105002269 86.5 36.720001459 57.105002269 87 36.720001459 57.105002269 87.5 
36.720001459 57.105002269 88 36.720001459 57.105002269 88.5 36.720001459 59.40000236 30 
36.855001464 57.105002269 83 36.855001464 57.105002269 83.5 36.855001464 57.105002269 84 
36.855001464 57.105002269 84.5 36.855001464 58.590002328 22.5 36.855001464 58.725002334 23 
36.855001464 58.725002334 23.5 36.855001464 58.860002339 25.5 36.855001464 58.995002344 26 
36.855001464 58.995002344 26.5 36.855001464 59.13000235 27 36.855001464 59.13000235 27.5 
36.855001464 59.265002355 28 36.855001464 59.40000236 28.5 36.855001464 59.40000236 29 
36.855001464 59.40000236 29.5 36.99000147 58.050002307 14 36.99000147 58.185002312 14.5 
36.99000147 58.320002317 15 36.99000147 58.320002317 15.5 36.99000147 58.455002323 20 
36.99000147 58.455002323 20.5 36.99000147 58.455002323 21 36.99000147 58.455002323 21.5 
36.99000147 58.455002323 22 36.99000147 58.590002328 22.5 36.99000147 58.590002328 23 
36.99000147 58.590002328 23.5 36.99000147 58.725002334 24 36.99000147 58.725002334 24.5 
36.99000147 58.725002334 25 37.125001475 57.915002301 13 37.125001475 57.915002301 13.5 
37.125001475 58.320002317 16 37.125001475 58.320002317 16.5 37.125001475 58.320002317 17 
37.125001475 58.320002317 17.5 37.125001475 58.320002317 18 37.125001475 58.320002317 18.5 
37.125001475 58.320002317 19 37.125001475 58.320002317 19.5 37.260001481 57.780002296 12.5 
37.260001481 57.780002296 13 37.395001486 57.510002285 12 37.395001486 57.645002291 12.5 
37.530001491 57.37500228 11 37.530001491 57.37500228 11.5 37.665001497 57.105002269 11.5 
37.665001497 57.240002275 10.5 37.665001497 57.240002275 11 37.665001497 57.240002275 11.5 
37.800001502 56.970002264 10 37.800001502 57.105002269 10 37.800001502 57.240002275 10 
37.800001502 57.240002275 10.5 37.935001507 57.37500228 10 38.070001513 57.510002285 10 
38.205001518 57.645002291 9.5 38.340001523 57.780002296 9 38.475001529 57.915002301 8.5 
38.610001534 58.050002307 8 38.74500154 58.185002312 8 38.880001545 58.320002317 8 
39.01500155 58.455002323 6 39.01500155 58.455002323 7.5 39.150001556 58.590002328 6 
39.150001556 58.590002328 6.5 39.150001556 58.590002328 7 39.150001556 58.590002328 7.5 

LINES 312 622
OFFSETS vtktypeint64
0 2 4 6 8 10 12 14 16 
18 20 22 24 26 28 30 32 34 
36 38 40 42 44 46 48 50 52 
54 56 58 60 62 64 66 68 70 
72 74 76 78 80 82 84 86 88 
90 92 94 96 98 100 102 104 106 
108 110 112 114 116 118 120 122 124 
126 128 130 132 134 136 138 140 142 
144 146 148 150 152 154 156 158 160 
162 164 166 168 170 172 174 176 178 
180 182 184 186 188 190 192 194 196 
198 200 202 204 206 208 210 212 214 
216 218 220 222 224 226 228 230 232 
234 236 238 240 242 244 246 248 250 
252 254 256 258 260 262 264 266 268 
270 272 274 276 278 280 282 284 286 
288 290 292 294 296 298 300 302 304 
306 308 310 312 314 316 318 320 322 
324 326 328 330 332 334 336 338 340 
342 344 346 348 350 352 354 356 358 
360 362 364 366 368 370 372 374 376 
378 380 382 384 386 388 390 392 394 
396 398 400 402 404 406 408 410 412 
414 416 418 420 422 424 426 428 430 
432 434 436 438 440 442 444 446 448 
450 452 454 456 458 460 462 464 466 
468 470 472 474 476 478 480 482 484 
486 488 490 492 494 496 498 500 502 
504 506 508 510 512 514 516 518 520 
522 524 526 528 530 532 534 536 538 
540 542 544 546 548 550 552 554 556 
558 560 562 564 566 568 570 572 574 
576 578 580 582 584 586 588 590 592 
594 596 598 600 602 604 606 608 610 
612 614 616 618 620 622 
CONNECTIVITY vtktypeint64
306 308 308 309 309 310 310 311 311 
307 307 305 305 304 304 303 303 302 
302 301 301 300 300 299 299 298 298 
296 296 297 297 292 292 289 289 286 
286 287 287 285 285 275 275 259 259 
260 260 261 261 262 262 276 276 277 
277 278 278 279 279 280 280 281 281 
282 282 283 283 263 263 264 264 265 
265 266 266 267 267 268 268 269 269 
270 270 271 271 272 272 273 273 250 
250 251 251 252 252 253 253 254 254 
255 255 256 256 257 257 258 258 242 
242 228 228 229 229 207 207 208 208 
188 188 179 179 180 180 123 123 124 
124 125 125 126 126 127 127 128 128 
93 93 94 94 95 95 96 96 90 
90 88 88 86 86 85 85 84 84 
83 83 82 82 79 79 77 77 78 
78 76 76 75 75 68 68 61 61 
60 60 59 59 46 46 47 47 40 
40 30 30 31 31 32 32 33 33 
34 34 35 35 36 36 37 37 38 
38 39 39 44 44 45 45 58 58 
67 67 72 72 73 73 74 74 81 
81 119 119 120 120 173 173 174 174 
175 175 176 176 185 185 186 186 187 
187 191 191 211 211 212 212 213 213 
214 214 215 215 230 230 231 231 232 
232 209 209 189 189 181 181 143 143 
144 144 145 145 135 135 105 105 106 
106 107 107 108 108 109 109 110 110 
111 111 112 112 113 113 114 114 115 
115 116 116 117 117 118 118 153 153 
154 154 155 155 156 156 157 157 158 
158 159 159 160 160 161 161 162 162 
163 163 182 182 192 192 193 193 194 
194 195 195 218 218 219 219 220 220 
233 233 243 243 244 244 245 245 246 
246 234 234 235 235 236 236 237 237 
238 238 239 239 240 240 241 241 224 
224 225 225 226 226 227 227 203 203 
204 204 205 205 206 206 183 183 184 
184 151 151 152 152 142 142 104 104 
103 103 100 100 101 101 102 102 80 
80 71 71 69 69 70 70 65 65 
66 66 56 56 57 57 54 54 55 
55 51 51 52 52 53 53 50 50 
48 48 49 49 41 41 42 42 22 
22 23 23 24 24 25 25 21 21 
20 20 19 19 18 18 14 14 15 
15 16 16 17 17 12 12 13 13 
11 11 10 10 8 8 9 9 7 
7 6 6 5 5 4 4 3 3 
2 2 1 1 0 35 26 26 27 
27 28 28 29 29 43 90 91 91 
92 92 89 89 87 180 129 129 130 
130 131 131 132 132 133 133 134 134 
97 97 98 98 99 55 62 62 63 
63 64 135 136 136 137 137 138 138 
139 139 140 140 141 141 146 146 147 
236 221 221 198 237 222 222 199 238 
223 223 200 225 196 196 197 118 164 
164 165 165 166 166 167 167 168 168 
169 169 170 170 171 171 172 225 201 
201 202 81 121 121 122 122 177 177 
178 147 148 148 149 149 150 186 190 
190 210 225 216 216 217 287 284 284 
274 267 247 247 248 248 249 296 295 
295 294 292 293 293 290 296 291 291 
288 
CELL_DATA 311
SCALARS angle%0A[rad] double
LOOKUP_TABLE default
0 2.0161172184 0.86412001452 0.75540096487 0.77879456189 0.60215683461 0.55702500346 0.40042578594 0.24123319491 
0.27028465694 0.34412850639 0.53681525979 1.2483487638 1.2060444979 0.36223066284 0.31541423792 0.59257078551 0.59030904923 
0.5723982367 0.30412352658 0.27293458067 0.26834319585 0.29181179321 0.2867478699 0.24264562176 0.24264562176 0.20110736403 
0.16795457501 0.13606011263 0.10672092024 0.074131812054 0.057184337075 0.072436691647 0.085224345466 0.02699344294 0.02699344294 
0.038165226606 0.038165226606 0.10715681858 0.053616132889 0.080212441851 0.10661923697 0.053346198357 0.053346198357 0.096389064832 
0.037807521539 0.060000296252 0.060000296252 0.11948578792 0.11019221081 0.14254498241 0.18878499004 0.18918885788 0.213502393 
0.17771386867 0.11307727432 0.15106486856 0.097234356222 0.18835430889 0.058910677785 0.15615398149 0.11331760417 0.155812351 
0.14234320616 0.14047819405 0.13834056174 0.095226951267 0.096892958427 0.14297217541 0.14187652991 0.14456648099 0.26904737072 
0.26266559505 0.23979403234 0.21364749125 0.1878126703 0.17204851083 0.12863602453 0.1505973363 0.11796610305 0.092618094676 
0.092618094676 0.094051261325 0.12926745432 0.13086178213 0.15603919342 0.16982863451 0.18759406901 0.22083981761 0.18323940964 
0.24607002375 0.31252142075 0.28729175449 0.28729175449 0.21433725897 0.17917904214 0.20950037748 0.1937323587 0.21652344461 
0.19467723279 0.2127826352 0.13168731374 0.15740081086 0.11916810833 0.085469301734 0.091153821485 0.13561634091 0.29810314132 
0.068887417352 0.10594637735 0.10059652156 0.13360475104 0.13226174467 0.1243408993 0.16202251069 0.10758301464 0.060056548568 
0.075999157667 0.16358510864 0.19013613216 0.18813418002 0.17040910742 0.18188163982 0.19691826586 0.28737840707 0.2931380131 
0.34410502752 0.31854774864 0.2074309371 0.09628665457 0.044817573449 0.11994960785 0.24988171488 0.097041371296 0.13441328633 
0.15210928834 0.15210928834 0.15654312447 0.15969854991 0.16385914931 0.10741566062 0.11981546179 0.060318182082 0.048582182906 
0.062764734797 0.053947605782 0.053947605782 0.060318182082 0.060300643582 0.053927990711 0.060283087213 0.060283087213 0.038137461491 
0.038137461491 0.053810620226 0.060173747175 0.060173747175 0.084931549555 0.13681347087 0.084931549555 0.038026843819 0.038026843819 
0.026954191393 0.026954191393 0.060173747175 0.057508457472 0.054226271012 0.11086736701 0.18112335072 0.16372573068 0.15062585505 
0.17267017504 0.060300643582 0.060300643582 0.02699344294 0.02699344294 0.080941048722 0.067397766388 0.062764734797 0.10719529028 
0.053947605782 0.060108489129 0.13383406193 0.1993268373 0.18093225721 0.18093225721 0.21559629422 0.25130556378 0.21051839159 
0.24347711029 0.18415144815 0.21774867785 0.16660822919 0.099284690317 0.052319271734 0.020755960676 0.024940562866 0.029211518695 
0.043236950447 0.10696202375 0.16221385746 0.1044261594 0.17959452229 0.11234909239 0.20514005405 0.13763164471 0.19229403557 
0.058951508611 0.094587909004 0.059013119552 0.037483238814 0.026636525046 0.07987231694 0.083713434718 0.083713434718 0.083713434718 
0.026636525046 0.026636525046 0.074542652263 0.074542652263 0.026523130224 0.052896560373 0.026373430149 0.059257961389 0.07497752082 
0.095266322273 0.13077572702 0.18475088585 0.15514377962 0.18169777628 0.19262977799 0.1689761026 0.17031774838 0.2322363229 
0.14774375453 0.17904075645 0.1988535233 0.17554184879 0 0.11117704997 0.088515001239 0.13398802655 0.18053051406 
0.17919946792 0.18014091779 0.30141709415 0.11052671408 0.15347190316 0.2382227218 0.21146365257 0.089515921819 0.14975736247 
0.13311180275 0.12725908389 0.11916810833 0.067008646911 0.056517905811 0.12016592259 0.097044096901 0.20800300019 0.20279916299 
0.16913163262 0.11423988807 0.11423988807 0.11637832572 0.11910268947 0.12587853194 0.12932300575 0.13450614824 0 
0.2907052874 0.26371184446 0.2907052874 0.26371184446 0.2907052874 0.23671840152 0.15520541673 0.060300643582 0.038371850071 
0.085174925961 0.085174925961 0.085174925961 0.085174925961 0.060300643582 0.060300643582 0.060300643582 0.038165226606 0.080241127439 
0.053947605782 0.040042788737 0.088603308663 0.059440763125 0.16913163262 0 0 0.02699344294 0.20257377721 
0.13224159792 0.14456648099 0.038165226606 0.57591023631 0.31360559278 0.16282874723 0.09661420808 0.097044096901 1.2612941793 
1.2325575357 0.34362190627 1.2643628636 0.44332459573 0.56867485924 
METADATA
INFORMATION 0

FIELD FieldData 8
angle_vert%0A[rad] 1 311 double
0 2.735859758 2.735859758 2.735859758 2.735859758 2.735859758 2.735859758 2.735859758 2.735859758 
2.735859758 2.735859758 2.735859758 2.735859758 2.735859758 2.7598938529 2.722085052 2.793905827 2.7622504053 
2.7940528117 2.9840310686 2.9943047949 3.002538436 3.0083254056 3.0113200564 2.9965926492 2.9965926492 3.0034864405 
3.021426731 3.0391396936 3.0465527311 3.0609901847 3.0762013966 3.091010834 3.1056081921 3.122309329 3.1208264076 
3.1097835798 3.1068940698 3.0564177276 3.0564177276 3.0436257866 3.0307252866 3.0307252866 3.0307252866 3.0436257866 
3.0391396936 3.0331789244 3.0331789244 3.0074039204 3.0177655903 3.0113200564 3.0041711199 3.0076335098 2.9993702678 
2.9900288993 2.9900288993 3.0060581041 3.0093804672 2.9985069064 2.9985069064 2.9994347057 3.0391396936 3.0464216172 
3.042445129 3.0369759918 3.0308708661 3.0574170252 3.0518344759 3.0646022756 3.0793654028 3.0913235081 3.0867623592 
2.9761334993 2.9599956847 2.9475040994 2.9350062341 2.919040012 2.919040012 2.9067847367 2.8821035634 2.8821035634 
2.8821035634 2.8945437028 2.8945437028 2.9067847367 2.919040012 2.9205750463 2.9221911889 2.9238831758 2.9256385649 
2.9274331123 2.9367913801 2.9398228666 2.9235173853 2.9621432027 2.9784010127 3.0690205999 3.08129201 3.0929560959 
3.08306806 3.0798247407 3.0607845742 3.0557581162 3.0500667287 3.0435695799 3.0360832066 3.0273641405 3.0170823324 
3.0221637229 3.0152110211 3.0074039204 3.0162531602 3.0074039204 3.0176163703 3.0295636867 3.0437244994 3.0436257866 
3.0564177276 3.0929560959 3.0989278098 3.0859881037 3.0848116471 3.0816644961 3.0781485009 3.0741948872 3.0847330089 
3.0806813106 3.0760087694 3.0760087694 3.0760087694 3.0760087694 3.0780387461 3.053322726 3.0859881037 3.0859881037 
3.0876450478 3.0876450478 3.072864307 3.0692593163 3.0652559829 3.1191353898 3.1177323278 3.1161423048 3.0984951865 
3.1000780565 3.09662299 3.0925411206 3.111414899 3.111414899 3.103427427 3.0929560959 3.0929560959 3.0989278098 
3.0989278098 3.08129201 3.0859881037 3.0859881037 3.072864307 3.072864307 3.072864307 3.072864307 3.072864307 
3.0859881037 3.0859881037 3.0859881037 3.08306806 3.0798247407 3.0762013966 3.0721271935 3.0847330089 3.0984951865 
3.0951845851 3.0913235081 3.0867623592 3.1170521257 3.1170521257 3.1415926536 3.122309329 3.1000780565 3.09662299 
3.0925411206 3.0690205999 3.0553648187 3.031057278 3.031057278 3.031057278 3.0113200564 2.9916662193 2.9809636266 
2.9615790935 2.9698400754 2.950662987 2.950662987 2.950662987 2.949298618 2.9394447918 2.9466801011 2.9361461487 
2.9244274877 2.9113161898 2.9113161898 2.9197648976 2.9044887673 2.9134290983 2.9139561297 2.9254799829 2.9664072752 
2.9740243412 2.9740243412 2.9917888027 3.0034864405 2.9917888027 2.9917888027 2.9798956612 2.9798956612 2.9798956612 
2.9917888027 2.9917888027 2.9854386721 2.9854386721 2.9782719291 2.9704004945 2.9619271942 2.9619271942 2.9529440326 
2.9435318592 2.9435318592 2.914260869 2.9041607155 2.8853248536 2.8853248536 2.8806161539 2.8867657077 2.8808497387 
2.8808497387 2.8875995827 2.8703072038 2.850559658 2.8278133907 2.8318592437 2.8031043387 3.0325373244 3.0435695799 
3.0561673231 3.0741948872 3.0680889489 3.0806813106 3.0760087694 3.0705611078 3.0641284274 3.0275210907 3.0278491267 
3.0264785528 3.0193533077 3.01129312 3.0381069089 3.0302098259 3.0413071452 3.053322726 2.9847185567 2.9718859471 
2.98758288 3.0989278098 3.0989278098 3.0966852342 3.0941940145 3.0781485009 3.0741948872 3.0697166812 3.1415926536 
3.1190964484 3.1170521257 3.1190964484 3.1170521257 3.1190964484 3.0925411206 3.0705611078 3.0867623592 3.0966852342 
3.0941940145 3.0914104081 3.0882797832 3.0847330089 3.0984951865 3.0951845851 3.0913235081 3.1068940698 3.0741948872 
3.0925411206 3.0021023392 2.9915270818 2.9792320411 2.98758288 3.1415926536 3.1415926536 3.1170521257 3.0055755472 
2.9933832867 3.0913235081 3.1068940698 2.851765315 2.851765315 3.0668476315 3.060645015 3.053322726 2.6564289277 
2.6564289277 2.7049459276 2.6581246383 2.7567833632 2.7187387126 
diameter%0A[mm] 1 311 double
0.74874379025 0.74874379025 0.74874379025 0.74874379025 0.74874379025 0.74874379025 0.74874379025 0.74874379025 0.74874379025 
0.74874379025 0.74874379025 0.74874379025 0.74874379025 0.74874379025 0.74874379025 0.74874379025 1.1129337827 1.1129337827 
1.1129337827 1.1129337827 1.1129337827 1.1129337827 1.1129337827 1.1129337827 1.1129337827 1.1129337827 1.1129337827 
1.1129337827 1.1129337827 1.1129337827 1.1129337827 1.1129337827 1.1129337827 1.1129337827 1.0867506197 1.0867506197 
1.0867506197 1.0867506197 1.0867506197 1.0867506197 1.0867506197 1.0867506197 1.0867506197 1.0867506197 1.0867506197 
1.0867506197 1.0867506197 1.0867506197 1.0867506197 1.0867506197 1.0867506197 1.0867506197 1.0867506197 1.0867506197 
1.0867506197 1.1389042867 1.1389042867 1.1389042867 1.1389042867 1.1389042867 1.1389042867 1.1389042867 1.1389042867 
1.1389042867 1.1389042867 1.1389042867 1.1389042867 1.1389042867 1.1389042867 1.1389042867 1.1389042867 1.1389042867 
0.97419808706 0.97419808706 0.97419808706 0.97419808706 0.97419808706 0.97419808706 0.97419808706 0.97419808706 0.97419808706 
0.97419808706 0.97419808706 0.97419808706 0.97419808706 0.97419808706 0.97419808706 0.97419808706 0.97419808706 0.97419808706 
0.97419808706 0.97419808706 0.83872304336 0.83872304336 0.83872304336 0.83872304336 0.83872304336 0.83872304336 0.83872304336 
0.83872304336 0.83872304336 0.83872304336 0.83872304336 0.83872304336 0.83872304336 0.83872304336 0.83872304336 0.83872304336 
0.88120450905 0.88120450905 0.88120450905 0.88120450905 0.88120450905 0.88120450905 0.88120450905 0.99829803825 0.99829803825 
0.99829803825 0.99829803825 0.99829803825 0.99829803825 0.99829803825 0.99829803825 0.99829803825 0.99829803825 0.99829803825 
0.99829803825 0.99829803825 0.99829803825 0.99829803825 0.99829803825 0.99829803825 0.99829803825 0.99829803825 0.99829803825 
0.99829803825 0.99829803825 0.86476499624 0.86476499624 0.86476499624 0.86476499624 0.86476499624 0.86476499624 0.86476499624 
0.86476499624 0.86476499624 0.86476499624 0.86476499624 0.86476499624 0.86476499624 0.86476499624 0.86476499624 0.86476499624 
0.86476499624 0.86476499624 0.86476499624 0.86476499624 0.98636105282 0.98636105282 0.98636105282 0.98636105282 0.98636105282 
0.98636105282 0.98636105282 0.98636105282 0.98636105282 0.98636105282 0.98636105282 0.98636105282 0.98636105282 0.98636105282 
0.98636105282 0.98636105282 0.98636105282 0.98636105282 0.98636105282 0.98636105282 1.1536555844 1.1536555844 1.1536555844 
1.1536555844 1.1536555844 1.1536555844 1.1536555844 1.1536555844 1.1536555844 1.1536555844 1.1536555844 1.1536555844 
1.1536555844 1.1536555844 1.1536555844 1.1536555844 1.1536555844 1.1536555844 1.1536555844 1.1536555844 1.1536555844 
1.1536555844 1.1536555844 1.0538912714 1.0538912714 1.0538912714 1.0538912714 1.0538912714 1.0538912714 1.0538912714 
1.0538912714 1.0538912714 1.0538912714 1.0538912714 1.0538912714 1.0538912714 1.0538912714 1.0538912714 1.0538912714 
1.0538912714 1.0538912714 1.0538912714 1.0538912714 0.7715675027 0.7715675027 0.7715675027 0.7715675027 0.7715675027 
0.7715675027 0.7715675027 0.7715675027 0.7715675027 0.7715675027 0.7715675027 0.7715675027 0.7715675027 0.7715675027 
0.7715675027 0.7715675027 0.7715675027 0.7715675027 0.7715675027 0.7715675027 0.7715675027 0.82011405849 0.82011405849 
0.82011405849 0.82011405849 0.82011405849 1.1389042867 1.1389042867 1.1389042867 1.1389042867 1.1310229346 1.1310229346 
1.1310229346 1.1310229346 1.1310229346 1.1310229346 1.1310229346 1.1310229346 1.1310229346 1.2747034102 1.2747034102 
1.2747034102 1.068529889 1.068529889 1.068529889 1.068529889 1.068529889 1.068529889 1.068529889 1.068529889 
1.3677044845 1.3677044845 1.4159911885 1.4159911885 1.4588506587 1.4588506587 1.4821344534 1.4821344534 0.699023568 
0.699023568 0.699023568 0.699023568 0.699023568 0.699023568 0.699023568 0.699023568 0.699023568 1.5060759817 
1.5060759817 0.83872304336 0.83872304336 0.83872304336 0.83872304336 1.068529889 1.068529889 1.068529889 1.3235323997 
1.3235323997 1.4946805395 1.4946805395 1.7331887322 1.7331887322 1.1850891181 1.1850891181 1.1850891181 2.0310825411 
2.0310825411 0.74874379025 0.74874379025 1.4991707449 1.4991707449 
distance%0A[mm] 1 311 double
0.19091883851 0.5 0.5 0.5 0.19091883851 0.53521024177 0.19091883851 0.19091883851 0.53521024177 
0.53521024177 0.53521024177 0.53521024177 0.19091883851 0.19091883851 0.5 0.51790443274 0.53521024177 0.53521024177 
0.51790443274 0.53521024177 0.53521024177 0.53521024177 0.51790443274 0.51790443274 0.5 0.51790443274 0.5 
0.5 0.5 0.5 0.5 0.5 0.5 0.53521024177 0.5 0.5 
0.5 0.5 0.51790443274 0.5 0.5 0.51790443274 0.5 0.5 0.53521024177 
0.51790443274 0.5 0.51790443274 0.5 0.51790443274 0.51790443274 0.5 0.5 0.51790443274 
0.13500000536 0.5 0.51790443274 0.5 0.13500000536 0.53521024177 0.5 0.51790443274 0.5 
0.5 0.5 0.5 0.5 0.51790443274 0.5 0.5 0.5 0.51790443274 
0.51790443274 0.51790443274 0.51790443274 0.51790443274 0.51790443274 0.51790443274 0.53521024177 0.51790443274 0.5 
0.13500000536 0.13500000536 0.53521024177 0.53521024177 0.51790443274 0.51790443274 0.53521024177 0.5 0.53521024177 
0.13500000536 0.5 0.5 0.5 0.5 0.5 0.5 0.5 0.5 
0.5 0.51790443274 0.5 0.51790443274 0.51790443274 0.51790443274 0.5 0.5 0.53521024177 
0.51790443274 0.5 0.51790443274 0.5 0.5 0.5 0.53521024177 0.5 0.5 
0.53521024177 0.51790443274 0.5 0.5 0.5 0.5 0.53521024177 0.5 0.5 
0.51790443274 0.13500000536 0.13500000536 0.13500000536 0.5 0.5 0.51790443274 0.51790443274 0.5 
0.5 0.5 0.5 0.5 0.5 0.5 0.51790443274 0.5 0.5 
0.51790443274 0.5 0.5 0.51790443274 0.5 0.5 0.5 0.5 0.5 
0.5 0.5 0.5 0.5 0.5 0.51790443274 0.51790443274 0.5 0.5 
0.5 0.53521024177 0.5 0.5 0.51790443274 0.51790443274 0.5 0.5 0.5 
0.51790443274 0.5 0.5 0.5 0.5 0.5 0.5 0.5 0.51790443274 
0.5 0.5 0.5 0.51790443274 0.5 0.5 0.5 0.53521024177 0.5 
0.53521024177 0.5 0.13500000536 0.53521024177 0.13500000536 0.13500000536 0.5 0.5 0.53521024177 
0.53521024177 0.13500000536 0.5 0.53521024177 0.5 0.53521024177 0.5 0.51790443274 0.5 
0.51790443274 0.5 0.5 0.51790443274 0.51790443274 0.5 0.53521024177 0.5 0.53521024177 
0.5 0.5 0.5 0.53521024177 0.51790443274 0.53521024177 0.51790443274 0.53521024177 0.5 
0.5 0.5 0.53521024177 0.5 0.51790443274 0.53521024177 0.53521024177 0.5 0.19091883851 
0.51790443274 0.51790443274 0.53521024177 0.19091883851 0.51790443274 0.53521024177 0.53521024177 0.51790443274 0.5 
0.5 0.5 0.51790443274 0.5 0.5 0.51790443274 0.51790443274 0.53521024177 0.5 
0.5 0.5 0.5 0.5 0.51790443274 0.5 0.5 0.53521024177 0.5 
0.5 0.5 0.5 0.5 0.5 0.5 0.5 0.51790443274 0.5 
0.51790443274 0.51790443274 0.51790443274 0.51790443274 0.51790443274 0.51790443274 0.53521024177 0.5 0.53521024177 
0.5 0.5 0.5 0.5 0.5 0.5 0.5 0.5 0.51790443274 
0.5 0.53521024177 0.5 0.51790443274 0.5 0.5 0.5 0.5 0.53521024177 
0.51790443274 0.51790443274 0.5 0.19091883851 0.53521024177 0.53521024177 0.51790443274 0.5 0.13500000536 
0.13500000536 0.5 0.13500000536 0.51790443274 0.53521024177 
edge_id 1 311 int
737292 555706 555707 555708 737295 2008187 735462 734055 2004193 
2002076 1999676 1996922 721784 718002 532796 1261034 2160594 2156159 
1431174 2151605 2146724 2141442 1415964 1416142 503754 1054737 509456 
509457 509458 509459 509460 509461 509462 2141978 503936 503937 
503938 503939 1416500 504110 504111 1416669 504277 504278 2136880 
1411257 498706 1411374 498821 1411485 1411560 499004 499005 1226967 
117774 486865 1214756 480639 105193 2107477 468020 1195867 461620 
461621 461622 461623 461624 1189476 455228 455229 455230 1552064 
1551992 1551917 1551801 1551681 1551514 1551345 1908423 1544786 447638 
261118 260944 1901519 1895262 1531725 1531546 1888754 427903 1882858 
235792 421737 421738 421739 421740 421741 421742 421743 421744 
421745 973429 427594 979243 985264 991442 446066 446067 1726920 
1004244 458986 1010621 465390 465391 465392 2284385 471588 471589 
2290409 1029193 483995 483996 483997 483998 2302395 490013 490014 