# vtk DataFile Version 5.1
vtk output
ASCII
DATASET POLYDATA
POINTS 16567 double
4.9950001985 31.725001261 3.5 4.9950001985 31.725001261 4 4.9950001985 31.725001261 4.5 
4.9950001985 31.725001261 5 4.9950001985 31.860001266 3.5 4.9950001985 31.860001266 4 
4.9950001985 31.860001266 4.5 4.9950001985 31.860001266 5 4.9950001985 31.995001271 3.5 
4.9950001985 31.995001271 4 4.9950001985 31.995001271 4.5 4.9950001985 31.995001271 5 
4.9950001985 32.130001277 3.5 4.9950001985 32.130001277 4 4.9950001985 32.130001277 4.5 
4.9950001985 32.130001277 5 4.9950001985 32.265001282 3.5 4.9950001985 32.265001282 4 
4.9950001985 32.265001282 4.5 4.9950001985 32.265001282 5 4.9950001985 32.400001287 3.5 
4.9950001985 32.400001287 4 4.9950001985 32.400001287 4.5 4.9950001985 32.400001287 5 
4.9950001985 32.535001293 3.5 4.9950001985 32.535001293 4 4.9950001985 32.535001293 4.5 
4.9950001985 32.535001293 5 4.9950001985 32.670001298 3.5 4.9950001985 32.670001298 4 
4.9950001985 32.670001298 4.5 4.9950001985 32.670001298 5 4.9950001985 32.805001304 3.5 
4.9950001985 32.805001304 4 4.9950001985 32.805001304 4.5 4.9950001985 32.805001304 5 
4.9950001985 32.940001309 3.5 4.9950001985 32.940001309 4 4.9950001985 32.940001309 4.5 
4.9950001985 32.940001309 5 4.9950001985 33.075001314 3.5 4.9950001985 33.075001314 4 
4.9950001985 33.075001314 4.5 4.9950001985 33.075001314 5 4.9950001985 33.21000132 3.5 
4.9950001985 33.21000132 4 4.9950001985 33.21000132 4.5 4.9950001985 33.21000132 5 
4.9950001985 33.345001325 4 4.9950001985 33.345001325 4.5 4.9950001985 33.48000133 4 
4.9950001985 33.48000133 4.5 4.9950001985 33.615001336 4 4.9950001985 33.615001336 4.5 
4.9950001985 33.750001341 4 4.9950001985 33.750001341 4.5 4.9950001985 33.885001346 4 
4.9950001985 33.885001346 4.5 4.9950001985 34.020001352 4 4.9950001985 34.020001352 4.5 
4.9950001985 34.155001357 4 4.9950001985 34.155001357 4.5 4.9950001985 34.290001363 4 
4.9950001985 34.290001363 4.5 4.9950001985 34.425001368 3.5 4.9950001985 34.425001368 4 
4.9950001985 34.425001368 4.5 4.9950001985 34.425001368 5 4.9950001985 34.560001373 3.5 
4.9950001985 34.560001373 4 4.9950001985 34.560001373 4.5 4.9950001985 34.560001373 5 
4.9950001985 34.695001379 3.5 4.9950001985 34.695001379 4 4.9950001985 34.695001379 4.5 
4.9950001985 34.695001379 5 4.9950001985 34.830001384 3.5 4.9950001985 34.830001384 4 
4.9950001985 34.830001384 4.5 4.9950001985 34.830001384 5 4.9950001985 34.965001389 3.5 
4.9950001985 34.965001389 4 4.9950001985 34.965001389 4.5 4.9950001985 34.965001389 5 
4.9950001985 35.100001395 3.5 4.9950001985 35.100001395 4 4.9950001985 35.100001395 4.5 
4.9950001985 35.100001395 5 4.9950001985 35.2350014 3.5 4.9950001985 35.2350014 4 
4.9950001985 35.2350014 4.5 4.9950001985 35.2350014 5 4.9950001985 35.370001405 3.5 
4.9950001985 35.370001405 4 4.9950001985 35.370001405 4.5 4.9950001985 35.370001405 5 
4.9950001985 35.505001411 3.5 4.9950001985 35.505001411 4 4.9950001985 35.505001411 4.5 
4.9950001985 35.505001411 5 4.9950001985 35.640001416 3.5 4.9950001985 35.640001416 4 
4.9950001985 35.640001416 4.5 4.9950001985 35.640001416 5 4.9950001985 37.530001491 4.5 
4.9950001985 37.665001497 3.5 4.9950001985 37.665001497 4 4.9950001985 37.665001497 4.5 
4.9950001985 37.665001497 5 4.9950001985 37.800001502 3.5 4.9950001985 37.800001502 4 
4.9950001985 37.800001502 4.5 4.9950001985 37.800001502 5 4.9950001985 37.935001507 3.5 
4.9950001985 37.935001507 4 4.9950001985 37.935001507 4.5 4.9950001985 37.935001507 5 
4.9950001985 38.070001513 3.5 4.9950001985 38.070001513 4 4.9950001985 38.070001513 4.5 
4.9950001985 38.070001513 5 5.1300002038 31.320001245 3.5 5.1300002038 31.320001245 4 
5.1300002038 31.320001245 4.5 5.1300002038 31.320001245 5 5.1300002038 31.45500125 3.5 
5.1300002038 31.45500125 4 5.1300002038 31.45500125 4.5 5.1300002038 31.45500125 5 
5.1300002038 31.590001255 3.5 5.1300002038 31.590001255 4 5.1300002038 31.590001255 4.5 
5.1300002038 31.590001255 5 5.1300002038 35.775001422 4 5.1300002038 35.775001422 4.5 
5.1300002038 35.910001427 4 5.1300002038 35.910001427 4.5 5.1300002038 36.045001432 4 
5.1300002038 36.045001432 4.5 5.1300002038 36.180001438 4 5.1300002038 36.180001438 4.5 
5.1300002038 36.315001443 4 5.1300002038 36.315001443 4.5 5.1300002038 36.450001448 4 
5.1300002038 36.450001448 4.5 5.1300002038 36.585001454 4 5.1300002038 36.585001454 4.5 
5.1300002038 36.720001459 4 5.1300002038 36.720001459 4.5 5.1300002038 36.855001464 4 
5.1300002038 36.855001464 4.5 5.1300002038 36.99000147 4 5.1300002038 36.99000147 4.5 
5.1300002038 37.125001475 4 5.1300002038 37.125001475 4.5 5.1300002038 37.260001481 4 
5.1300002038 37.260001481 4.5 5.1300002038 37.395001486 3.5 5.1300002038 37.395001486 4 
5.1300002038 37.395001486 4.5 5.1300002038 37.395001486 5 5.1300002038 37.530001491 3.5 
5.1300002038 37.530001491 4 5.1300002038 37.530001491 5 5.1300002038 38.205001518 3.5 
5.1300002038 38.205001518 4 5.1300002038 38.205001518 4.5 5.1300002038 38.205001518 5 
5.1300002038 38.340001523 3.5 5.1300002038 38.340001523 4 5.1300002038 38.340001523 4.5 
5.1300002038 38.340001523 5 5.2650002092 28.890001148 4 5.2650002092 28.890001148 4.5 
5.2650002092 29.025001153 3.5 5.2650002092 29.025001153 4 5.2650002092 29.025001153 4.5 
5.2650002092 29.025001153 5 5.2650002092 29.160001159 3.5 5.2650002092 29.160001159 4 
5.2650002092 29.160001159 4.5 5.2650002092 29.160001159 5 5.2650002092 29.295001164 3.5 
5.2650002092 29.295001164 4 5.2650002092 29.295001164 4.5 5.2650002092 29.295001164 5 
5.2650002092 29.430001169 3.5 5.2650002092 29.430001169 4 5.2650002092 29.430001169 4.5 
5.2650002092 29.430001169 5 5.2650002092 29.565001175 3.5 5.2650002092 29.565001175 4 
5.2650002092 29.565001175 4.5 5.2650002092 29.565001175 5 5.2650002092 29.70000118 3.5 
5.2650002092 29.70000118 4 5.2650002092 29.70000118 4.5 5.2650002092 29.70000118 5 
5.2650002092 29.835001186 4 5.2650002092 29.835001186 4.5 5.2650002092 29.970001191 4 
5.2650002092 29.970001191 4.5 5.2650002092 30.105001196 4 5.2650002092 30.105001196 4.5 
5.2650002092 30.240001202 4 5.2650002092 30.240001202 4.5 5.2650002092 30.375001207 4 
5.2650002092 30.375001207 4.5 5.2650002092 30.510001212 4 5.2650002092 30.510001212 4.5 
5.2650002092 30.645001218 4 5.2650002092 30.645001218 4.5 5.2650002092 30.780001223 4 
5.2650002092 30.780001223 4.5 5.2650002092 30.915001228 4 5.2650002092 30.915001228 4.5 
5.2650002092 31.050001234 4 5.2650002092 31.050001234 4.5 5.2650002092 31.185001239 4 
5.2650002092 31.185001239 4.5 5.2650002092 38.475001529 3.5 5.2650002092 38.475001529 4 
5.2650002092 38.475001529 4.5 5.2650002092 38.475001529 5 5.2650002092 38.610001534 3.5 
5.2650002092 38.610001534 4 5.2650002092 38.610001534 4.5 5.2650002092 38.610001534 5 
5.4000002146 28.755001143 3.5 5.4000002146 28.755001143 4 5.4000002146 28.755001143 4.5 
5.4000002146 28.755001143 5 5.4000002146 28.890001148 3.5 5.4000002146 28.890001148 5 
5.4000002146 38.74500154 3.5 5.4000002146 38.74500154 4 5.4000002146 38.74500154 4.5 
5.4000002146 38.880001545 3.5 5.4000002146 38.880001545 4 5.4000002146 38.880001545 4.5 
5.4000002146 39.01500155 4 5.4000002146 39.01500155 4.5 5.5350002199 27.6750011 4 
5.5350002199 27.6750011 4.5 5.5350002199 27.810001105 4 5.5350002199 27.810001105 4.5 
5.5350002199 27.94500111 4 5.5350002199 27.94500111 4.5 5.5350002199 28.080001116 4 
5.5350002199 28.080001116 4.5 5.5350002199 28.215001121 4 5.5350002199 28.215001121 4.5 
5.5350002199 28.350001127 4 5.5350002199 28.350001127 4.5 5.5350002199 28.485001132 4 
5.5350002199 28.485001132 4.5 5.5350002199 28.620001137 4 5.5350002199 28.620001137 4.5 
5.5350002199 39.150001556 3.5 5.5350002199 39.150001556 4 5.5350002199 39.150001556 4.5 
5.5350002199 39.150001556 5 5.5350002199 39.285001561 3.5 5.5350002199 39.285001561 4 
5.5350002199 39.285001561 4.5 5.5350002199 39.285001561 5 5.5350002199 39.420001566 3.5 
5.5350002199 39.420001566 4 5.5350002199 39.420001566 4.5 5.5350002199 39.420001566 5 
5.5350002199 39.555001572 3.5 5.5350002199 39.555001572 4 5.5350002199 39.555001572 4.5 
5.5350002199 39.555001572 5 5.5350002199 39.690001577 3.5 5.5350002199 39.690001577 4 
5.5350002199 39.690001577 4.5 5.5350002199 39.690001577 5 5.5350002199 39.825001583 3.5 
5.5350002199 39.825001583 4 5.5350002199 39.825001583 4.5 5.5350002199 39.825001583 5 
5.5350002199 39.960001588 3.5 5.5350002199 39.960001588 4 5.5350002199 39.960001588 4.5 
5.5350002199 39.960001588 5 5.6700002253 27.000001073 3.5 5.6700002253 27.000001073 4 
5.6700002253 27.000001073 4.5 5.6700002253 27.000001073 5 5.6700002253 27.135001078 3.5 
5.6700002253 27.135001078 4 5.6700002253 27.135001078 4.5 5.6700002253 27.135001078 5 
5.6700002253 27.270001084 3.5 5.6700002253 27.270001084 4 5.6700002253 27.270001084 4.5 
5.6700002253 27.270001084 5 5.6700002253 27.405001089 3.5 5.6700002253 27.405001089 4 
5.6700002253 27.405001089 4.5 5.6700002253 27.405001089 5 5.6700002253 27.540001094 3.5 
5.6700002253 27.540001094 4 5.6700002253 27.540001094 4.5 5.6700002253 27.540001094 5 
5.6700002253 40.095001593 4 5.6700002253 40.095001593 4.5 5.6700002253 40.230001599 4 
5.6700002253 40.230001599 4.5 5.6700002253 40.365001604 4 5.6700002253 40.365001604 4.5 
5.6700002253 40.500001609 4 5.6700002253 40.500001609 4.5 5.6700002253 40.635001615 4 
5.6700002253 40.635001615 4.5 5.8050002307 26.730001062 3.5 5.8050002307 26.730001062 4 
5.8050002307 26.730001062 4.5 5.8050002307 26.730001062 5 5.8050002307 26.865001068 4 
5.8050002307 26.865001068 4.5 5.8050002307 40.77000162 3.5 5.8050002307 40.77000162 4 
5.8050002307 40.77000162 4.5 5.8050002307 40.77000162 5 5.8050002307 40.905001625 3.5 
5.8050002307 40.905001625 4 5.8050002307 40.905001625 4.5 5.8050002307 40.905001625 5 
5.8050002307 41.040001631 3.5 5.8050002307 41.040001631 4 5.8050002307 41.040001631 4.5 
[...]
CELL_DATA 16566
SCALARS angle%0A[rad] double
LOOKUP_TABLE default
0 0.7853981634 0.3217505544 0 0.17985349979 0.24497866313 0.19739555985 0.16514867741 0.1418970546 
0.12435499455 0.0075756126512 0.085294412197 0.065125163334 0.046561305267 0.028769038818 0.010988568683 0.0075756126512 0.027881219364 
0.051237167403 0.040336853297 0.019997333973 0.13432144195 0.12750955822 0.12135200057 0.11575921772 0.11065722117 0.10598435799 
0.063459825652 0.099668652491 0.012930313815 0.044170147245 0.11942892602 0.11942892602 0.097726907359 0.097726907359 0.72133206937 
0.37360364281 0.2419633593 0.68691203012 0.22460379436 0.1839129394 0.30717034897 0.33367277133 0.34353649395 0.33642683869 
0.35950540518 0.38071164983 0.48517931964 0.91647946432 0.59646335248 0.89833412518 0.87939290661 0.85962629928 0.83542172412 
1.1513421522 1.1997518493 0.69188683286 0.66370034936 0.64125955669 0.99520790265 0.99531381183 1.0035618147 1.0163309699 
1.0340235126 0.88424650315 0.89165270008 0.91671565975 0.94311839606 0.9183218232 0.97724100238 1.058249092 1.1505620755 
1.2541447862 0.8725348911 1.0850099578 1.1890085637 0.17682425204 0.74751474437 0.72437053195 0.70237669534 0.68146930782 
0.58753231338 0.58753231338 0.58753231338 0.58753231338 0.74414691243 0.71618729248 0.63190462379 0.30048612288 0.75592834372 
0.74751474437 0.74751474437 0.74751474437 0.74751474437 0.74751474437 0.72437053195 0.77208583189 0.71093935506 0.68903880401 
0.66824384959 0.56205288206 0.54381000468 0.52660523832 0.51036178985 0.38326427964 0.37124761996 0.35992964209 0.34925379498 
0.98212370566 0.72959069986 0.95325508244 0.55761357355 0.54197756039 0.55423725675 0.5560899444 0.54229899183 0.52977436561 
0.51853573927 0.43083404582 0.4357840853 0.44164411702 0.44866922706 0.40868953686 0.41216822952 0.37915157744 0.36723912997 
0.35602139565 0.34544191633 0.23455062178 0.23455062178 0.23455062178 0.23455062178 0.23455062178 0.23455062178 0.23455062178 
0.23455062178 0.23455062178 0.23455062178 0.34727736082 0.39478555901 0.31524450827 0.3704343854 0.23532802652 0.22844602322 
0.52607152717 0.27357776294 0.27357776294 0.27357776294 0.27357776294 0.8410788255 0.38998317527 0.70374505135 0.52181129088 
0.52181129088 0.52181129088 0.52181129088 0.52181129088 0.52181129088 0.52181129088 0.52181129088 0.56130329135 0.68070918087 
0.65274791299 0.68070918087 0.68070918087 0.67858637725 0.21475665574 0.76870626964 0.67787509472 0.39778795199 0.81366824497 
0.41370105177 0.3489870142 0.57100314138 0.47020484484 0.11613126702 0.34456970388 0.38163271683 0.18567556827 1.102161212 
1.102161212 0.083825824459 0.026498165251 0.20492327037 1.1479423858 0.083825824459 0.072279339079 0.20492327037 0.17089574413 
0.40186810615 0.21426664358 0.040100888557 0.23328410007 1.0759009872 0.16571507878 0.2987014154 0.37804392477 0.27053172832 
0.21545722539 0.19955326278 0.15152082132 0.23949745539 0.21965340379 0.26088031061 0.21183452609 0.088515001239 0.074511040933 
0.20558644512 0.13080686946 0.10808059416 0.12845150078 0.13350784495 0.093637965427 0.087154559216 0.12297645569 0.094936931424 
0.2267218278 0.093383961422 0.19408855418 0.079369875327 0.079533085419 0.23860816111 0.14438762946 0.12016592259 0.11374613158 
0.11405416391 0.076219594234 0.2164722586 0.076219594234 0.056023960834 0.097044096901 0.097044096901 0.060300643582 0.060300643582 
0.060300643582 0.053947605782 0.12030465556 0.067373247557 0.060300643582 0.060300643582 0.053947605782 0.20976423868 0.080823550303 
0.080823550303 0.080823550303 0.080823550303 0.080823550303 0.053947605782 0.02699344294 0.080941048722 0.094391209329 0.11675162068 
0.13418873322 0.26371184446 0.34616766755 0.12060128716 0.13477115608 0.13477115608 0.10781699324 0.11675162068 0.12789956939 
0.14219537957 0.16118217616 0.18759817867 0.10719529028 0.12702305801 0.053365182918 0.18288829416 0.18288829416 0.15612882983 
0.13299664049 0.28536186213 0.16278140806 0.19278814852 0.14438762946 0.026379230571 0.092884161711 0.15920189999 0.1730048407 
0.25348926207 0.13418873322 0.11973368626 0.11405416391 0.38140488296 0.097044096901 0.097044096901 0.097044096901 0.097044096901 
0.10373930745 0.065133787887 0.084916448806 0.081669528048 0.11405416391 0.11405416391 0.076219594234 0.13264610441 0.080276644007 
0.085125405928 0.095101925271 0.09628665457 0.13280214949 0.30810994611 0.076219594234 0.076219594234 0.076219594234 0.13527393552 
0.2382227218 0.21146365257 0.085174925961 0.085174925961 0.085174925961 0.085174925961 0.053947605782 0.20976423868 0.12071212342 
0.15652408488 0.085174925961 0.060300643582 0.2382227218 0.21146365257 0.18014091779 0.30141709415 0.4255832223 0.24267116418 
0.13829282668 0.1186689757 0.14438762946 0.069167148222 0.059440763125 0.10648276426 0.22954175939 0.32190435151 0.067658700596 
0.1193408874 0.16297685233 0.182813804 0.23607635711 0.24837771318 0.21170444861 0.18900978246 0.15615398149 0.55689423515 
0.65226107642 0.46028722976 0.29191959709 0.18864862103 0.36475182886 0.038165226606 0.13418873322 0.053947605782 0.22373423051 
0.28536186213 0.10648276426 0.26967537884 0.37497102456 0.09661420808 0.2164722586 0.097044096901 0.21014614142 0.18305667339 
0.15571131765 0.14974897798 0.26165454611 0.29956744201 0.076915225224 0.057398114462 0.03646381696 0.03646381696 0.026060684806 
0 0.088832926131 0.11755440689 0.09019317314 0.13197650686 0.024990399836 0.28982733859 0.26496656056 0.23979119875 
0.21433725897 0.16793067258 0.18679661924 0.10310710873 0.29517908586 0.15169772809 0.11405416391 0.081817169865 0.11405416391 
0.11405416391 0.11405416391 0.25069766495 0.19966378087 0.058910677785 0.15615398149 0.13418873322 0.11405416391 0.11405416391 
0.097044096901 0.10299524518 0.19723316051 0.25348926207 0.13399459469 0.22454112 1.511301341 1.4840247753 1.4568244999 
1.4297666088 1.3847535172 1.3558907459 1.3290076952 1.2784102287 1.2965848631 0.09765992366 0.20061356705 0.19349412395 
0.21487699451 0.23698083845 0.23698083845 0.47658326477 0.58375763407 0.38601470354 0.21024825662 0.13557946834 0.28536186213 
0.16404155624 0.14172609266 0.06838526669 0.044822870557 0.085125405928 0.095101925271 0.12172801832 0.17886028564 0.080823550303 
0.19539780859 0.24267116418 0.2164722586 0.060300643582 0.38787115654 0.16828824043 0.1909938793 0.15122591138 0.10650579988 
0.089503207303 0.13829282668 0.1186689757 0.27538821927 0.11600463648 0.093383961422 0.18864862103 0.30041390205 0.10864817087 
0.088671793213 0.10605564515 0.096583598965 0.083317153227 0 0.18864862103 0.19548252612 0.19229403557 0.024940562866 
0.13065314963 0.21645076719 1.2365240832 1.559451021 1.5347996047 1.4932851597 1.4391277343 1.3961977683 1.3700701182 
1.3104073432 1.2929829365 1.2459885135 1.2048930129 1.1719165357 1.1398316217 1.1086659321 1.0126743156 0.11299634084 
0.15471914726 0.18108591071 0.26890468021 0.19909474713 0.14472601887 0.23053683404 0.30862479758 0.41180483976 0.53277100698 
0.76018843699 0.7702607396 0.36870056297 0.10735020291 0.25975357696 0.65318199077 0.56511307734 0.46442192822 0.35167535836 
0.22958804264 0.25819698337 0.4449654491 0.50667033828 0.36182767044 0.67055786168 0.6401148669 0.57873021106 0.51432494293 
0.44661212429 0.34303981592 0.26832143371 0.19798552171 0 0.11336328065 0.23695988521 0.37094377499 0.6036597392 
0.61552983484 0.12017736368 0.15617072929 0.41707989166 0.63664511849 0.58087749921 0.44546735044 0.37763422248 0.34151813924 
0.20117826645 0.87127129292 0.87127129292 0.87127129292 0.87127129292 0.84590175002 0.48643783195 0.33543272981 0.97125930266 
0.94794488034 0.9200509609 0.84689741876 0.82561617032 0.83121040213 0.80800692013 0.47726240164 0.44260423625 0.53884874267 
0.65623345986 0.84092736539 0.77639167361 0.5186559041 0.3360302499 0.21144675274 0.33408166476 0.30937239516 0.29437218445 
0.15337253661 1.1646798664 1.1646798664 0.4937325355 1.1291031933 1.1318521749 1.1335521183 1.1371016656 0.21409099289 
0.49918749107 0.1539361427 0.2160353165 0.40581705002 0.63337030137 1.1208931167 1.1006685742 1.0902629908 1.0986368253 
1.0631721732 1.0405573849 0.38436012631 0.223035255 0.11536416859 0.086660251993 0.19283708158 0.27562402356 0.31267306535 
0.21409099289 0.20494482522 0.50946911116 0.30934769643 0.16722022614 0.14747743566 0.25990439277 0.2267218278 0.14438762946 
0.12016592259 0.1730048407 0.16501408116 0.28242636366 0.2079845862 0.18977973545 0.19627549654 0.14756154112 0.18891007177 
0.17545851449 0.057435341872 0.18337013837 0.074511040933 0.074511040933 0.19541664736 0.16187069734 0.077879166651 0.14437897231 
0.5632687652 0.77599570847 1.32330709 1.293747382 1.2723977683 1.3140462893 0.10014229695 0.079105129493 1.0049500421 
1.17261919 1.1075316918 1.0219496738 0.9120520378 0.76057231087 0.59768140341 1.2027722403 1.1588023051 0.5918701425 
0.83253621967 0.60187655444 0.36027242939 1.5173432241 1.4816640629 1.4233509062 1.3618332121 1.3127291628 1.3362692474 
1.2568235783 1.2761622182 1.1887496762 1.1229381073 1.0578183305 0.99453688749 0.93418227638 0.89016682279 0.83345666967 
0.71174411589 0.66139334392 0.73948626937 0.7985702624 0.68510064815 0.89382650955 0.51667459101 0.85867203787 0.38614039811 
0.49726364559 0.35983170171 0.13334026803 1.1020417691 0.72642748368 0.15796096247 0.2602951988 0.15954763137 0.2315456662 
0.21761922677 0.21127360599 0.22283796589 0.23797361177 0.25849650394 0.28763295464 0.33165311691 0.40432677101 0.54149694986 
0.40432677101 0.85779352526 0.38161039372 0.29067775523 0.36221704039 0.24785905273 0.36221704039 0.11794848642 0.24785905273 
0.25312216189 0.26963869831 0.29991310236 0.21226426479 0.28028952812 0.15727646319 0.22006170263 0.66596923738 0.10308160852 
0.16309529221 0.01574672985 0.1401017244 0.19739555985 1.0322881683 0.58080851392 0.11565477628 0.13918707828 0.11629956574 
0.17814345936 0.13339990244 0.12704980045 0.55599544736 0.13918707828 0.15656642973 0.19967371731 0.15952096581 0.20813407759 
0.24821637344 0.19958659593 0.15236716658 0.11847437179 0.12041043145 0.11847437179 0.17947710461 0.29650169603 0.21339784993 
0.5304624748 0.5152812326 0.17093781293 0.21339784993 0.18017401545 0.16780072104 0.19200349813 0.23062331681 0.20299201928 
0.12891077168 0.19816776047 0.15216239449 0.23148875635 0.21021537032 0.1592045316 0.11658600546 0.19335789673 0.13411078259 
0.27318788244 0.21501488175 0.14090400627 0.064132115001 0.3858826694 0.37527082286 0.027020449187 0.18848710955 0.14090400627 
0.064132115001 0.3858826694 0.37527082286 0.11487660542 0.027020449187 0.11487660542 0.34877100358 0.19612167519 0.29212959097 
0.25811111638 0.24910235109 0.23811378241 0.19739555985 0.3217505544 0.3217505544 0.3217505544 0.29423456511 0.29423456511 
0.28605144172 0.25877089196 0.15389395323 0.23873605987 0.29423456511 0.29423456511 0.28605144172 0.25877089196 0.25877089196 
0.25877089196 0.25877089196 0.2310906672 0.2310906672 0.2310906672 0.22471116841 0.19739555985 0.19739555985 0.19739555985 
0.16977827397 0.16977827397 0.16977827397 0.24020753018 0.13579084157 0.1192780955 0.11709546132 0.18636743282 0.18636743282 
0.18636743282 0.16371448717 0.16371448717 0.16371448717 0.16371448717 0.16371448717 0.16371448717 0.055158715928 0.12435499455 
0.094313951327 0.091938658882 0.1418970546 0.1418970546 0.1418970546 0.1418970546 0.1418970546 0.13800602366 0.11065722117 
0.11065722117 0.11065722117 0.12435499455 0.58800260355 0.045423279422 0.10092178467 0 0.12795210133 0.072453596089 
0.051901398458 0.54041950027 0.051901398458 0.10379234046 0.15967760738 0.1080117247 0.16977827397 0.21579839008 0.18406301656 
0.12219517069 0.051901398458 0.017542060057 0.037956445188 0.13504263035 0.27057034433 0.19379845306 0.51554900746 0.50160405419 
0.12769641589 0.17985349979 0.13979260009 0.12347703165 0.15471686508 0.21555261247 0.1735825511 0.12891077168 0.19816776047 
0.15216239449 0.23148875635 0.21021537032 0.1592045316 0.11658600546 0.19335789673 0.13411078259 0.27318788244 0.21501488175 
0.14090400627 0.064132115001 0.3858826694 0.37527082286 0.027020449187 0.18848710955 0.14090400627 0.064132115001 0.3858826694 
0.37527082286 0.11487660542 0.027020449187 0.11487660542 0.34877100358 0.19612167519 0.29212959097 0.25811111638 0.24910235109 
0.23811378241 0.19739555985 0.3217505544 0.3217505544 0.3217505544 0.29423456511 0.29423456511 0.28605144172 0.25877089196 
0.15389395323 0.23873605987 0.29423456511 0.29423456511 0.28605144172 0.25877089196 0.25877089196 0.25877089196 0.25877089196 
0.2310906672 0.2310906672 0.2310906672 0.22471116841 0.19739555985 0.19739555985 0.19739555985 0.16977827397 0.16977827397 
0.16977827397 0.055158715928 0.12435499455 0.094313951327 0.091938658882 0.1418970546 0.1418970546 0.1418970546 0.1418970546 
0.1418970546 0.13800602366 0.11065722117 0.11065722117 0.11065722117 0.24020753018 0.13579084157 0.1192780955 0.11709546132 
0.18636743282 0.18636743282 0.18636743282 0.16371448717 0.16371448717 0.16371448717 0.16371448717 0.16371448717 0.16371448717 
0.16371448717 0.16371448717 0.11065722117 0.11065722117 0.11065722117 0.11065722117 0.16371448717 0.16371448717 0.11065722117 
0.11065722117 0.11065722117 0.11065722117 0.11065722117 0.11065722117 0.083141231888 0.083141231888 0.080904099155 0.080904099155 
0.054001500376 0.054001500376 0.054001500376 0.054001500376 0.42235025622 0.18096552094 0.15539762672 0.3042005474 0.3042005474 
0.3042005474 0.42235025622 0.18096552094 0.15539762672 0.3042005474 0.3042005474 0.3042005474 0.2952451123 0.26882368993 
0.2952451123 0.26882368993 0.054001500376 0.054001500376 0.35862081776 0.099424779798 0.099424779798 0.35862081776 0.12317347272 
0.12317347272 0.10158460365 0.1039598961 0.10158460365 0.1039598961 0.12317347272 0.12317347272 0.12317347272 0.10658456199 
0.10658456199 0.12317347272 0.12317347272 0.10950000562 0.10950000562 0.12317347272 0.12317347272 0.11275732309 0.11275732309 
0.12317347272 0.12317347272 0.11642031037 0.11642031037 0.12317347272 0.12317347272 0.12056966415 0.12056966415 0.12317347272 
0.12317347272 0.12530896516 0.12530896516 0.12317347272 0.12317347272 0.13077339165 0.13077339165 0.12317347272 0.13714273226 
0.027770636593 0.027770636593 0.027770636593 0.13714273226 0.027770636593 0.027770636593 0.027770636593 0.027020449187 0.027020449187 
0 0 0 0 0 0 0.027020449187 0.027020449187 0.027020449187 
0.027020449187 0.027020449187 0.027020449187 0.027020449187 0.027020449187 0.32535600722 0.12562887921 0.13812822823 0.36017755655 
0.21793811258 0.18522814613 0.19968377046 0.22971976319 0.24273471398 0.26625204915 0.13542318841 0.14402632972 0.33895023116 
0.31030945178 0.29145679448 0.29819153018 0.64377357721 0.39645319848 0.36915623408 0.35825538527 0.33131493925 0.64377357721 
0.39645319848 0.36915623408 0.35825538527 0.33131493925 0.37413865788 0.3283752816 0.3217505544 0.33895023116 0.41840126864 
0.34858393747 0.35877067027 0.39494830629 0.47527439768 0.36689811384 0.37132082999 0.33460678301 0.40489178629 0.2939799178 
0.47527439768 0.31156312824 0.44663625351 0.28354319886 0.36121629905 0.34243724715 0.35273574052 0.18948015788 0.44663625351 
0.12686665786 0.41745212733 0.14344077 0.37506197153 0.38901826016 0.43227301019 0.26625204915 0.085505293678 0.085505293678 
0.8261897364 0.16077829889 0.44808973785 0.8261897364 0.16077829889 0.44808973785 0.48551840667 0.16371448717 0.34520744319 
0.11426962358 0.079643383736 0.023132119943 0.48551840667 0.16371448717 0.16371448717 0.16371448717 0.12655833126 0.13999963133 
0.014123354653 0.0031347859698 0.16371448717 0.16371448717 0.16371448717 0.15474918974 0.010562987403 0.16371448717 0.16371448717 
0.17099247153 0.02810504746 0.16371448717 0.16371448717 0.18895140168 0.051356670271 0.16371448717 0.20889285873 0.16454293602 
0.20760634282 0.23334897849 0.083603552706 0.1418970546 0.1418970546 0.1418970546 0.2626935807 0.11379200714 0.60319593829 
0.19870029324 0.12830660782 0.16077829889 0.36915623408 0.60319593829 0.19870029324 0.12830660782 0.16077829889 0.36915623408 
0.29639004473 0.2696725092 0.44746910409 0.17884593454 0.20795854725 0.12435499455 0.38391033396 0.17749508049 0.28483251015 
0.30634338109 0.20116710462 0.22617956533 0.14955973987 0.17985349979 0.20161880218 0.23303974045 0.33682256849 0.25436349724 
0.21687361567 0.27411697302 0.12306187103 0.28966833995 0.26923915083 0.24986722238 0.26175181554 0.20752219816 0.19200349813 
0.15638135957 0.21120705807 0.19200349813 0.23901666592 0.19509606169 0.15985742002 0.12339517463 0.19332893164 0.14243397093 
0.239312102 0.19870029324 0.12830660782 0.16077829889 0.39645319848 0.19804584258 0.20084381348 0.16780072104 0.1550580843 
0.17814642595 0.20752219816 0.19200349813 0.15638135957 0.21120705807 0.19200349813 0.23901666592 0.19509606169 0.15985742002 
0.12339517463 0.19332893164 0.14243397093 0.239312102 0.19870029324 0.12830660782 0.16077829889 0.39645319848 0.38008480807 
0.29887092685 0.28630833117 0.25055331703 0.26299473168 0.14707835539 0.32835118051 0.22528599811 0.33106997295 0.24697858766 
0.28907337359 0.27927994195 0.2058341781 0.041933445873 0.29991310236 0.1547507961 0.30882087413 0.38217930504 0.31673391498 
0.35640319017 0.41716011481 0.11870533714 0.2310906672 0.25877089196 0.24519173618 0.3042005474 0.49652739343 0.24261300846 
0.66153174341 0.30377395476 0.062979662433 0.096839005261 0.61314197868 0.1202329299 0.24697858766 0.35797734579 0.049255901984 
0.1207465683 0.30873573332 0.35960894486 0.43231402732 0.49652739343 0.60524000712 0.035699112679 0.29423456511 0.28605144172 
0.21924209058 0.3042005474 0.74842394702 0.30882087413 0.78242505144 0.41716011481 0.20487671704 0.035699112679 0.8498658882 
0.21377928853 0.56523467345 0.50121682493 0.61852723133 0.20487671704 0.29423456511 0.52208849885 0.75058117312 0.41823089907 
0.31216280866 0.086161040908 0.04107277859 0.15233751051 0.86463550081 0.33131493925 0.40536052178 0.10350784197 0.1290858877 
0.33131493925 0.12231228834 0.086885045855 0.12765332385 0.15022432625 0.096839005261 0.3217505544 0.3217505544 0.3217505544 
0.17510764814 0.29423456511 0.20258650137 0.27180349762 0.26453909892 0.14724775892 0.1926646667 0.1418970546 0.28936532134 
0.16600042566 0.28624921644 0.18895556407 0.16820677186 0.21392510452 0.14256121045 0.25349603202 0.27858128442 0.25349603202 
0.27226395424 0.30521980352 0.26884335383 0.2490428154 0.2376817657 0.28952858238 0.24865037261 0.23928204069 0.57174614516 
0.24670404324 0.13918707828 0.1820280179 0.13918707828 0.18875002947 0.2393284717 0.18001852071 0.12704980045 0.11709019518 
0.20062104715 0.13928647929 0.12704980045 0.5304624748 0.30524837861 0.28907804745 0.21392510452 0.16077829889 0.19739555985 
0.17219081452 0.2434916532 0.18733345346 0.31273508689 0.29325764562 0.18733345346 0.16077829889 0.20632389403 0.1505757181 
0.22106237858 0.19348497093 0.3242843359 0.30002752821 0.19348497093 0.16077829889 0.19164849669 0.13182768154 0.23672340217 
0.20326023149 0.34413666632 0.29211794156 0.20326023149 0.16077829889 0.20982831176 0.14387529139 0.26272842539 0.22106237858 
0.38482725967 0.32101191369 0.22106237858 0.14109484899 0.23923159996 0.16514867741 0.3134197627 0.23641572345 0.47321078595 
0.26272842539 0.29473010521 0.44808973785 0.47321078595 0.14109484899 0.42333340037 0.20211993415 0.077764939603 0.41981236458 
0.30260661865 0.36886304091 0.28465248572 0.36250601816 0.35481121832 0.33205143264 0.33205143264 0.41014398027 0.46723674594 
0.19281851608 0.30193349677 0.28923080888 0.28923080888 0.26440315979 0.399515494 0.69326837113 0.15985742002 0.051237167403 
0.090659887201 0.12532768351 0.44972892756 0.051237167403 0.43833655986 0.69326837113 0.15985742002 0.051237167403 0.11658600546 
0.12532768351 0.46314054339 0.051237167403 0.43833655986 0.80296073051 0.24866970658 0.20015975544 0.24946830582 0.21127231624 
0.36125517391 0.36771727125 0.46599968664 0.60258565064 0.6874580173 0.27426339635 0.31077512246 0.71093935506 0.31156312824 