# vtk DataFile Version 5.1
vtk output
ASCII
DATASET POLYDATA
POINTS 4046 double
28.890001148 34.830001384 180.5 29.025001153 34.965001389 180 29.160001159 35.100001395 179.5 
29.295001164 35.2350014 179.5 29.430001169 35.370001405 179.5 29.565001175 35.505001411 179.5 
29.70000118 35.640001416 178.5 29.70000118 35.640001416 179 29.835001186 35.640001416 178.5 
29.835001186 35.640001416 179 29.970001191 35.640001416 178.5 29.970001191 35.640001416 179 
30.105001196 35.640001416 178.5 30.105001196 35.640001416 179 30.240001202 35.640001416 178.5 
30.240001202 35.640001416 179 30.375001207 35.640001416 178.5 30.375001207 35.640001416 179 
30.510001212 35.640001416 178.5 30.510001212 35.640001416 179 30.645001218 35.775001422 178.5 
30.645001218 35.775001422 179 30.780001223 35.910001427 178 30.780001223 35.910001427 178.5 
30.780001223 35.910001427 179 30.915001228 36.045001432 177.5 30.915001228 36.045001432 178 
30.915001228 36.045001432 178.5 31.050001234 36.045001432 177.5 31.050001234 36.045001432 178 
31.185001239 36.180001438 177.5 31.185001239 36.180001438 178 31.320001245 35.2350014 171 
31.320001245 35.370001405 170 31.320001245 35.370001405 170.5 31.320001245 35.370001405 171 
31.320001245 36.180001438 177.5 31.320001245 36.180001438 178 31.45500125 35.100001395 171 
31.45500125 35.505001411 171 31.45500125 36.315001443 177.5 31.45500125 36.315001443 178 
31.590001255 34.695001379 171 31.590001255 34.830001384 171 31.590001255 34.965001389 171 
31.590001255 35.640001416 171 31.590001255 36.315001443 177.5 31.590001255 36.315001443 178 
31.725001261 34.560001373 171 31.725001261 35.775001422 171 31.725001261 36.450001448 177.5 
31.725001261 36.450001448 178 31.860001266 34.425001368 171 31.860001266 35.910001427 171 
31.860001266 36.450001448 176.5 31.860001266 36.450001448 177.5 31.995001271 34.290001363 171.5 
31.995001271 36.045001432 171 31.995001271 36.585001454 176.5 31.995001271 36.585001454 177 
32.130001277 34.155001357 171.5 32.130001277 36.180001438 171 32.130001277 36.585001454 176.5 
32.130001277 36.585001454 177 32.265001282 34.020001352 171.5 32.265001282 36.180001438 171 
32.265001282 36.720001459 176.5 32.265001282 36.720001459 177 32.400001287 33.885001346 171.5 
32.400001287 36.180001438 171 32.400001287 36.720001459 176.5 32.400001287 36.720001459 177 
32.535001293 33.885001346 171.5 32.535001293 33.885001346 172 32.535001293 36.315001443 171 
32.535001293 36.720001459 176.5 32.535001293 36.720001459 177 32.670001298 33.885001346 172 
32.670001298 33.885001346 172.5 32.670001298 36.450001448 171 32.670001298 36.720001459 176.5 
32.670001298 36.720001459 177 32.805001304 33.750001341 172.5 32.805001304 33.750001341 173 
32.805001304 36.585001454 171.5 32.805001304 36.855001464 176.5 32.805001304 36.855001464 177 
32.940001309 33.615001336 172.5 32.940001309 33.615001336 173 32.940001309 36.720001459 172 
32.940001309 36.855001464 176.5 32.940001309 36.855001464 177 33.075001314 33.48000133 172.5 
33.075001314 33.48000133 173 33.075001314 36.855001464 172.5 33.075001314 36.855001464 176.5 
33.075001314 36.855001464 177 33.21000132 33.345001325 172.5 33.21000132 33.345001325 173 
33.21000132 36.855001464 173 33.21000132 36.855001464 176.5 33.21000132 36.855001464 177 
33.345001325 31.45500125 177.5 33.345001325 31.45500125 178 33.345001325 33.345001325 173 
33.345001325 36.855001464 173 33.345001325 36.99000147 176.5 33.345001325 36.99000147 177 
33.48000133 31.590001255 177.5 33.48000133 33.345001325 173.5 33.48000133 36.99000147 173.5 
33.48000133 36.99000147 176.5 33.48000133 36.99000147 177 33.615001336 31.725001261 177 
33.615001336 33.345001325 174 33.615001336 36.99000147 174 33.615001336 37.125001475 176.5 
33.615001336 37.125001475 177 33.750001341 31.860001266 177 33.750001341 33.345001325 174 
33.750001341 37.125001475 174.5 33.750001341 37.125001475 176.5 33.750001341 37.125001475 177 
33.885001346 31.995001271 177 33.885001346 33.345001325 174 33.885001346 37.125001475 176.5 
33.885001346 37.125001475 177 33.885001346 37.260001481 175 34.020001352 32.130001277 177 
34.020001352 33.345001325 174 34.020001352 37.260001481 176.5 34.020001352 37.395001486 175.5 
34.155001357 32.265001282 177 34.155001357 33.345001325 174 34.155001357 37.260001481 176.5 
34.155001357 37.395001486 175.5 34.155001357 37.395001486 176 34.155001357 37.395001486 176.5 
34.290001363 32.400001287 177 34.290001363 33.345001325 174 34.290001363 37.260001481 177 
34.290001363 37.395001486 175.5 34.290001363 37.395001486 177 34.425001368 32.535001293 177 
34.425001368 33.345001325 174 34.425001368 37.395001486 175.5 34.425001368 37.395001486 176 
34.560001373 32.670001298 177 34.560001373 32.805001304 176.5 34.560001373 32.940001309 176.5 
34.560001373 33.345001325 174 34.560001373 37.395001486 175.5 34.560001373 37.395001486 176 
34.695001379 32.670001298 175.5 34.695001379 32.670001298 176 34.695001379 32.805001304 175.5 
34.695001379 32.805001304 176 34.695001379 32.940001309 175.5 34.695001379 32.940001309 176 
34.695001379 33.075001314 175.5 34.695001379 33.075001314 176 34.695001379 33.345001325 174.5 
34.695001379 37.395001486 175.5 34.695001379 37.395001486 176 34.830001384 32.130001277 175.5 
34.830001384 32.265001282 175.5 34.830001384 32.400001287 175.5 34.830001384 32.535001293 175.5 
34.830001384 33.21000132 175.5 34.830001384 33.21000132 176 34.830001384 33.345001325 174.5 
34.830001384 37.530001491 175.5 34.830001384 37.530001491 176 34.965001389 31.995001271 175.5 
34.965001389 33.345001325 174.5 34.965001389 33.345001325 175 34.965001389 33.345001325 175.5 
34.965001389 33.345001325 176 34.965001389 37.530001491 175.5 34.965001389 37.530001491 176 
35.100001395 31.860001266 174.5 35.100001395 31.860001266 175 35.100001395 31.860001266 175.5 
35.100001395 37.530001491 175.5 35.100001395 37.530001491 176 35.2350014 31.725001261 176 
35.2350014 37.530001491 175.5 35.2350014 37.530001491 176 35.370001405 31.590001255 176.5 
35.370001405 31.590001255 177 35.370001405 37.530001491 175.5 35.370001405 37.530001491 176 
35.505001411 37.665001497 175.5 35.505001411 37.665001497 176 35.640001416 37.800001502 174.5 
35.640001416 37.800001502 175.5 35.640001416 37.800001502 176 35.775001422 37.935001507 174.5 
35.775001422 37.935001507 175 35.775001422 37.935001507 175.5 35.910001427 37.935001507 174.5 
35.910001427 37.935001507 175 35.910001427 37.935001507 175.5 36.045001432 38.070001513 174.5 
36.045001432 38.070001513 175 36.045001432 38.070001513 175.5 36.180001438 38.070001513 174.5 
36.180001438 38.070001513 175 36.180001438 38.070001513 175.5 36.315001443 38.070001513 174.5 
36.315001443 38.070001513 175 36.315001443 38.070001513 175.5 36.450001448 38.070001513 174.5 
36.450001448 38.070001513 175 36.450001448 38.070001513 175.5 36.450001448 38.070001513 176 
36.585001454 38.205001518 174.5 36.585001454 38.205001518 175 36.585001454 38.205001518 176 
36.720001459 38.205001518 174.5 36.720001459 38.205001518 175 36.855001464 38.340001523 174.5 
36.855001464 38.340001523 175 36.99000147 38.340001523 174.5 36.99000147 38.340001523 175 
37.125001475 38.340001523 173.5 37.125001475 38.340001523 174 37.125001475 38.340001523 174.5 
37.125001475 38.340001523 175 37.125001475 39.01500155 170.5 37.125001475 39.01500155 171 
37.125001475 39.150001556 170.5 37.125001475 39.285001561 170.5 37.260001481 38.340001523 173.5 
37.260001481 38.340001523 174 37.260001481 38.340001523 174.5 37.260001481 38.340001523 175 
37.260001481 38.610001534 172 37.260001481 38.74500154 172 37.260001481 38.880001545 171.5 
37.260001481 38.880001545 172 37.260001481 39.420001566 170.5 37.260001481 39.555001572 170 
37.260001481 39.690001577 169.5 37.395001486 38.340001523 172.5 37.395001486 38.340001523 173 
37.395001486 38.475001529 172.5 37.395001486 38.475001529 173 37.395001486 38.475001529 173.5 
37.395001486 38.475001529 174 37.395001486 38.475001529 174.5 37.395001486 38.475001529 175 
37.395001486 39.825001583 166.5 37.395001486 39.825001583 169 37.530001491 38.475001529 173.5 
37.530001491 38.475001529 174 37.530001491 38.475001529 174.5 37.530001491 38.475001529 175 
37.530001491 39.960001588 167 37.530001491 39.960001588 167.5 37.530001491 39.960001588 168 
37.530001491 39.960001588 168.5 37.530001491 39.960001588 169 37.665001497 38.610001534 173.5 
37.665001497 38.610001534 174 37.665001497 38.610001534 174.5 37.665001497 38.610001534 175 
37.800001502 38.610001534 173.5 37.800001502 38.610001534 174 37.800001502 38.610001534 174.5 
37.800001502 38.610001534 175 37.935001507 38.610001534 174 37.935001507 38.610001534 174.5 
37.935001507 38.610001534 175 38.070001513 38.610001534 174.5 38.070001513 38.610001534 175 
38.205001518 38.610001534 174.5 38.205001518 38.610001534 175 38.340001523 38.610001534 174.5 
38.340001523 38.610001534 175 38.475001529 38.610001534 174.5 38.475001529 38.610001534 175 
38.610001534 38.610001534 174.5 38.610001534 38.610001534 175 38.610001534 38.74500154 171 
38.74500154 32.400001287 178 38.74500154 32.805001304 179.5 38.74500154 33.075001314 177.5 
38.74500154 38.610001534 174.5 38.74500154 38.610001534 175 38.74500154 38.74500154 171 
38.880001545 31.860001266 180.5 38.880001545 31.995001271 180 38.880001545 31.995001271 181 
38.880001545 32.130001277 179.5 38.880001545 32.130001277 181 38.880001545 32.265001282 178.5 
38.880001545 32.265001282 179 38.880001545 32.265001282 181 38.880001545 32.535001293 178 
38.880001545 32.535001293 179 38.880001545 32.805001304 179 38.880001545 32.940001309 178 
38.880001545 32.940001309 178.5 38.880001545 33.075001314 177.5 38.880001545 38.610001534 174.5 
38.880001545 38.610001534 175 38.880001545 38.880001545 171 39.01500155 31.725001261 178.5 
39.01500155 31.725001261 180 39.01500155 31.860001266 179.5 39.01500155 31.995001271 179 
39.01500155 32.265001282 178.5 39.01500155 32.400001287 178.5 39.01500155 32.535001293 178 
[...]
CELL_DATA 4045
SCALARS angle%0A[rad] double
LOOKUP_TABLE default
0 2.0552335618 1.1277477105 0.99753956383 0.7666988114 0.63646080227 0.56432839119 0.54907371827 0.77058482498 
0.91293363462 0.77325047007 0.76662425764 0.79103946612 0.80198250275 0.82106551017 0.84684974536 0.75079642853 0.77292166343 
0.78283685397 0.80168402721 0.82913022662 0.86466121356 0.82236168868 0.79625853787 0.76796162976 0.85220627391 1.2395868572 
1.1739081466 1.0987326524 1.0443056746 0.99978745263 0.95767632944 0.86720731913 0.23988323108 0.5499486208 0.53428708195 
0.42996167042 0.3820987974 0.34608724258 0.20825894988 0.10007615814 0.076984431341 0.052655300681 0.1016946717 0.1016946717 
0.1016946717 0.10198531549 0.12856296647 0.14896195162 0.25856587816 0.37983361353 0.37325779569 0.36732653716 0.35039257743 
0.34066613108 0.34058727725 0.32192978036 0.31486935379 0.32215551265 0.31896717508 0.37542966908 0.36512781165 0.34323491895 
0.31385940455 0.61128599362 0.61128599362 0.61128599362 0.61128599362 0.94042274308 1.1315422316 1.2062012202 1.3033529695 
1.2664074588 1.0470091583 0.81046486185 0.58173928528 1.6381940932 0.34234521857 0.26958079251 0.11548748158 0.2309630519 
0.20002889195 0.20039924273 0.10117398443 0.15606264912 0.14136918212 0.20571380411 0.074379463343 0.09304256825 0.18466915739 
0.16021342126 0.16021342126 0.18419066639 0.1538032217 0.074455087591 0.16527275406 0.23043401578 0.42447086056 0.23303135771 
0.14317149943 0.12845150078 0.12700784722 0.26890080009 0.13350784495 0.056257671152 0.06009679494 0.055853259822 0 
0.052700880081 0.12294921426 0.057683344719 0.12287113852 0.081193956918 0.12287113852 0.17545851449 0.16504683392 0.10126483088 
0.04438673739 0.058922603426 0.20249286931 0.20279916299 0.20279916299 0.039187660967 0.083965336292 0.16913163262 0.14006635212 
0.05598648677 0.14974897798 0.15217202363 0.057779367958 0.041429216942 0.10297996232 0.13065901236 0.35037895883 0.13065901236 
0.2188092701 0.34299834541 0.074666950131 0.21907437665 0.18864862103 0.25003006359 0.10648276426 0.059270022484 0.037361391818 
0.034307397786 0.027444119211 0.040057690531 0.017488209426 0 0.052607886017 0.12297361115 0.058910677785 0.10648276426 
0.096200649811 0.097098052215 0.098628424092 0.037518811748 0.16278140806 0.13224159792 0.093544575529 0.13501352751 2.1073424255e-08 
0.12952311124 0.073513807642 0.093071966186 0.081294953579 0.019647516635 1.4901161194e-08 0.054291701787 0.1253185272 0.095235821013 
0.19408855418 0.083782824404 0.1083053871 0.094000103633 0.2267218278 0.1083053871 0.21575872165 0.20279916299 0.46762311566 
0.84932467836 1.5455892861 1.5470896857 1.4377996863 0.21372880659 0.2246103991 0.16976359969 0.24251724602 0.23731025003 
0.10545462107 0.26371184446 0.13122545706 0.10545462107 0.18323192664 0.09345750346 0.13681347087 0.077045328277 0.11086736701 
0.11086736701 0.11086736701 0.085174925961 0.085174925961 0.10781528656 0.050378927854 0.1124290268 0.097044096901 0.075739734269 
0.085174925961 0.085174925961 0.059758297912 0.1848348924 0.11086736701 0.10229638666 0.10758301464 0.10758301464 0.085174925961 
0.085174925961 0.042471724507 0.071951149284 0.097044096901 0.097044096901 0.076219594234 0.055521441212 0.060300643582 0.060300643582 
0.060300643582 0.12855325967 0.16989022499 0.29552561143 0.075888937305 0.075888937305 0.075888937305 0.11339852768 0.096250607763 
0.059710248846 0.036724508396 0.050741349109 0.069673502381 0.095384107305 0.037509590379 0.074594457124 0.13521018337 0.037084866745 
0.15156375429 0.13418873322 0.012544358177 0.074594457124 0.15156375429 0.1102497728 0.096581650303 0.096581650303 0.13372452508 
0.096774483767 0.060173747175 0.060173747175 0.11086736701 0.11086736701 0.080823550303 0.080823550303 0.053947605782 0.053947605782 
0.02699344294 0.02699344294 0.02699344294 0.02699344294 0 0 0 0 0 
0 0.076219594234 0.095171036344 0.093718826816 0.13686081664 0.038165226606 0.065201704426 0.053869273626 0.055521441212 
0.064676540544 0.09661420808 0.097044096901 0.036724508396 0.084392819752 0.1186689757 0.036724508396 0.13418873322 0.097044096901 
0.2587120715 0.34522870526 0.026750893396 0.051857628024 0.026750893396 0.13224159792 0.037518811748 0.16060473573 0.051857628024 
0.042697516835 0.032802785616 0.051857628024 0 0.053365182918 0.017824836898 0.13418873322 0.10758301464 0.026875944521 
0.013425783915 0.0089346274345 0.053365182918 0.080823550303 0.080823550303 0.080823550303 0.053947605782 0.02699344294 0.02699344294 
0.02699344294 0.02699344294 0.16118217616 0.2907052874 0.011558875938 0.017976220696 0.053947605782 0.053947605782 0.053947605782 
0.053947605782 0.053947605782 0.053947605782 0.15520541673 0.32872661563 0.060300643582 0.12702305801 0.2382227218 0.3722811777 
0.085174925961 0.085174925961 0.17713878368 0.083662428595 0.15615398149 0.15615398149 0.083662428595 0.25348926207 0.052896560373 
0.25348926207 0.18900978246 0.16757402076 0.16964983583 0.086744309303 0.076991709007 0.1083053871 0.20841514172 0.17819878244 
0.1511007096 0.3454319987 0.20940997549 0.11905855454 0.17162967341 1.2265242596 0.13662256902 0.11755440689 0.11755440689 
0.11755440689 0.11755440689 0.099355463558 0.10390829002 0.15219676646 0.086561767714 0.31434320454 0.20802365864 1.3071761625 
0.39291541412 0.27643586009 0.15219676646 0.030798010576 0.13672460469 0.13672460469 0.13672460469 0.13672460469 0.13672460469 
0.20218455005 0.24555357398 0.28733855384 0.26302080496 0.19422354434 0.48870454149 1.3002036744 1.3124774504 0.12605731896 
1.2541700329 0.11905855454 0.18686780948 1.227512716 0.037502135386 0.018391108097 0.14869865276 0.17578082647 0.22552601226 
0.2390032373 0.36293644411 0.081843748783 0.084478332342 0.14345262827 0.086561767714 0.061961991762 0.3708640268 0.49954270215 
0.43189496864 0.35800898133 0.28297009063 0.21039968717 0.14992111334 0.1492223182 0.20738956753 0.21426188129 0.31817973165 
0.25880564241 0.36016318082 0.25880564241 0.34820452304 0.21697141073 0.18865968001 0.38878169756 0.9670276387 0.94152485865 
0.37630516673 0.32558508752 1.1535098034 0.16557763378 0.29475103002 0.23715605378 1.0946582134 0.22557533465 0.18240306939 
0.2804287904 0.27039675178 0.095529197647 0.99956580014 0.27769907265 0.99853209581 0.02804991446 0.93623290179 0.49059635707 
1.1210724582 1.1210724582 1.0934882003 1.066668982 0.21295488085 0.22793094814 1.0340148527 1.0085618019 0.942877447 
0.32662008194 0.8667061171 0.82981509945 0.9085609886 0.88354270419 0.85951111486 0.17274425995 0.78693117151 0.75977190946 
0.69095828836 0.73274882353 0.67507468687 0.65099532381 0.59903540739 0.58017095375 0.56885056033 0.55120018216 0.53450820052 
0.51870720427 0.53573465703 0.55891034706 0.55891034706 0.48774095112 0.46409464098 0.514800631 0.56960246703 0.64390809907 
0.6795796657 0.85737766036 0.93067765164 0.83784151218 0.95869787654 1.0707389616 0.993387894 0.95282071016 1.3483934014 
0.71171455693 0.59341742587 0.45766524928 0.41330569023 0.24597821644 0.37089842487 0.45682565408 0.77051855319 1.0396482168 
1.0090236384 2.012425057 2.0255747302 2.0566894501 1.8912849014 1.8626033358 1.7888487078 1.7765710125 1.6803282909 
1.1801892831 1.0303768265 0.7853981634 0.2364561422 0.24124036278 0.24776675999 0.37789925959 0.42395726148 0.47103282185 
0.51873086742 0.5818824144 0.63242889739 0.7018406254 0.75987449429 0.62901781369 0.6574354279 0.48975011523 0.61266903421 
0.71263887688 0.84366717645 0.41124273021 0.77330145604 0.70352186827 0.71350160299 0.72698551579 0.74437787512 0.56462990782 
0.57157236041 0.22260030518 0.11900029338 0.12783054373 0.11877543807 0.11961851756 0.11860259588 0.11640432142 0.3042005474 
0.3042005474 0.3042005474 1.2038722185 1.0052474746 0.03450551299 0.31377315646 0.29740768263 0.26428855174 0.25969605654 
0.21780265629 0.21252480811 0.17424507464 0.1318676692 0.08221598284 0.045315241894 0.080515547805 0.20721696046 0.36518735294 
0.65056855304 0.86963426112 0.54668810142 0.5691209753 0.53350132631 0.58715959517 0.54710561446 0.66704078349 0.37306073909 
0.31689066178 0.24632707992 0.13148838074 0.16591163303 0.20489648355 0.24999499949 0.30783103888 0.36209673936 0.42044920524 
0.48289460252 0.30609578711 0.34073349994 0.41125949857 0.567182656 0.54598250551 0.13194295293 0.16724333327 0.16929104417 
0.56131146952 0.55889017328 0.55889017328 0.55889017328 0.54141194304 0.52179007839 0.52179007839 0.37826416727 0.1553733246 
0.16240670141 0.24706741557 0.36899768266 0.49179401804 0.74459430153 0.70623935909 1.3020594652 1.32716254 1.3206717627 
1.106224952 0.85387346641 0.57068991312 0.36715939643 0.19300507481 0.22273597849 0.36555273489 0.5819704747 0.8640576232 
1.2002190552 1.1835867732 1.1479423858 1.1304016715 1.1090451025 1.0717805131 1.0359699135 0.9766346579 0.94044831745 
0.90607629339 0.75255985371 0.73281512154 1.7732790139 1.7871844521 0.38461839389 0.38210574469 0.38393088904 0.38523518287 
0.39552992458 0.37995238422 0.40086201528 0.38210574469 0.38461839389 0.39011630101 0.39552992458 0.37975085002 0.40431769638 
0.45714513475 0.38336510762 0.56131587188 1.757135887 1.6815843094 1.7161936632 1.7618486124 1.717818902 1.7045320679 
1.2078055869 1.1488745412 1.092901542 1.6871148559 1.5051658002 1.6673153433 1.0622687494 1.318318431 0.98633417658 
0.96006253677 0.97101894391 0.99595250018 0.76257826592 0.55429762971 0.44191308401 0.3859719399 0.34443635885 0.32379041635 
0.35547245382 0.3732005028 0.44620950101 0.53226667733 0.48485781118 0.59500314075 0.71811705259 0.6182178886 1.0693757093 
1.8820126475 1.8416489024 1.0582375688 1.0678408971 1.0349651331 1.1524801538 1.0534159905 0.88273862395 0.72061762354 
0.50880513035 0.328412767 0.14112648776 0.22397563787 0.27762816322 0.69262514228 0.66454909128 0.85305897981 0.77848669141 
0.71963535524 1.4133181113 1.4519916937 1.6590602065 0.6371552254 0.54802070427 0.53909702203 0.53720734993 0.4601045319 
0.49910185158 0.28226105616 0.2698619359 0.25269759986 0.25351603939 0.2516705922 0.24261300846 0.24697858766 0.38217930504 
0.38217930504 1.4240795471 1.4225413013 1.393191773 1.3147945932 1.2625046205 1.2104970629 1.200262498 1.1904078465 
1.1741835531 1.1111014693 0.98212179678 0.92000223021 0.8735429528 2.3091454407 2.169714697 1.4999001413 1.4646737055 
1.4297095622 0.58349549746 0.66446786013 0.70670470424 0.4914375546 0.489534265 0.48434873789 0.48399945795 0.51105053957 
0.51519769985 0.49234377282 0.78505398674 0.81575037069 0.81330868667 0.81457047062 0.8308469999 0.83205576262 0.81348788756 
0.83556030652 0.84317163165 0.84486738291 0.73702477109 0.75791480662 0.65023853048 0.59353412857 0.62664659752 0.70091150932 
0.52628190973 0.78472524936 0.98538354408 0.69251362618 1.1865553673 1.3935348066 0.70480717304 0.68290357401 0.69674361284 
0.65941137692 0.6337061192 0.67077129136 0.54392633702 0.52465036639 1.9072272368 1.0235567809 1.0892359949 0.80594720854 
2.267260182 0.85532214502 0.98383072866 1.0740098612 0.94039489648 1.0469884244 0.69973841704 0.40199611191 0.78305959034 
0.71547542458 0.36032971006 0.32862292662 0.24967575455 0.25365189535 0.26077122449 0.29282896304 0.41811084531 0.43404736644 
0.4422211827 0.41554376408 0.58553374868 0.43664771723 1.0714154558 1.0714154558 0.753443839 0.81751538291 0.867623649 
0.81903861925 0.77109612938 0.85993398803 0.83448589949 0.74516367571 0.72090468572 0.69791489912 0.67611973382 0.55705388027 
0.53890255835 0.51954176804 0.51954176804 0.51954176804 0.50280891013 0.48703578899 0.47214934906 0.78915863023 0.9536533167 
0.98019953528 0.47278768793 0.57740305379 0.55889017328 0.54141194304 0.52489381776 0.43189244778 0.41823089907 1.1310244797 
1.0588136747 0.98761805755 0.17407087273 1.1769398879 1.0490713346 1.4090603096 1.0691198809 1.0382132034 0.65812792386 
0.89907699523 1.0455673225 1.384468612 0.93718733698 0.92584194624 0.82196399976 0.75368774317 0.92110596634 1.2406953182 
1.1338439841 0.97045888811 0.67368468759 1.1573080363 0.980217305 0.93220411872 0.78458379186 0.86378660994 2.1797197685 
1.3096207737 2.1172249753 1.8145107479 1.347421634 2.5105392776 1.7736073491 1.3453926667 2.4622055387 0.88080090993 
1.5707963268 1.5508028358 1.0721058165 0.77039862283 0.60533135364 0.65686509982 0.45820362377 0.32589997304 1.0469835822 
1.2751273983 1.7415239695 1.7093372194 1.6633827858 1.6076434282 1.5558128313 1.4699472318 1.1955970539 1.0761955547 
0.887426203 0.93798666395 1.5202616238 2.0568381947 2.0429212327 2.0420067033 2.1376806491 2.2267159689 1.9263537173 
1.5707963268 1.9026505905 1.9490161885 2.1058746168 2.0283757574 1.9478128888 0.62450403725 0.36300437758 0.25399894016 
0.076319233472 0.91131727387 1.0831690738 0.99571594329 0.51389515792 0.89814660732 1.7690468375 1.7301451945 0.72295319554 
0.79698138145 1.1205605153 0.88645850955 1.0457701464 0.76710192646 0.79470107153 0.71794730705 0.68975131327 1.0661159326 
0.42097253324 0.76451501414 0.76974194711 0.74006817491 0.28841178371 0.73422090205 0.79961156093 1.1887576128 1.1424990563 
0.76486084205 0.4656176018 0.58836319656 0.58836319656 0.58282534824 0.62881059487 0.80861101918 0.72776204298 0.2266935972 
0.30815213544 0.49041616775 0.71551743432 0.58577746494 0.45043514668 0.61772976955 1.3525715267 0.39447606667 0.39447606667 
0.53035402247 0.50135518164 0.49489173675 1.1800400602 1.0571566429 0.46793625222 0.55104801847 0.43143539672 1.2061731099 
1.8956041401 1.8650584456 1.0652236661 1.0714154558 1.38857507 1.0492924425 0.47609079465 0.92078678271 0.86102290318 
1.6907512258 1.7062609123 2.307539459 2.2783530732 1.6579904079 1.6579904079 1.6614136973 1.6650645502 1.6650645502 
1.1113882008 1.1684276725 1.2261227293 0.93738838895 1.3110710766 1.5707963268 0.71292816069 1.1848365291 0.95051609387 
1.00000084 1.0860500212 1.0707114473 1.0225488147 0.34823871686 0.63875128292 0.65844602895 0.81563201614 0.52106942742 
0.72759017657 0.57565169318 0.63128740791 0.66365529574 0.58571172835 0.6084460724 0.73769531051 0.7772803018 0.63915669453 
0.38282552812 0.2186034042 0.23858100311 1.1878399789 0.92890937508 0.74548259521 0.54136045271 0.59747606721 0.65626432695 
0.71747917889 0.58324966428 0.50879185048 0.3547251276 1.0466042978 0.44795473671 0.24017756557 1.157337172 0.44717257695 
0.3050117692 0.23045262261 1.2407353474 1.29129358 0.70183295799 0.59486048207 0.69095531912 0.86411068339 0.84741053957 
0.98380700574 0.98380700574 1.0825058949 1.0714154558 1.2835406906 1.108775384 0.25300225832 0.21390270859 1.6180353858 
1.3046693296 1.3705105998 1.3257869931 1.2624072512 1.15756182 0.95492105186 0.90444424585 0.89442844164 1.2664894526 
0.95747511445 1.2516065561 1.2542272402 1.2290679658 1.2054726999 1.1839024131 1.1491847433 1.1331265478 1.1249790769 
1.1321747714 1.1388262467 1.2955124811 0.90613958248 1.0714154558 1.0396482168 0.81704072289 0.58617179761 0.62723703836 
0.43579602665 0.30781919126 0.23698083845 0.15289656271 0.33978652981 0.13527633192 0.15287802407 0.739657379 1.2424113701 
1.1864623542 1.1514659677 1.1557223557 1.1318923544 1.111179224 1.095064976 1.0597047136 1.067367224 1.114639837 
0.41972337566 0.41972337566 0.41972337566 0.41972337566 1.0069099217 1.4957975851 1.352775076 1.3913105649 1.2527236634 
1.2031417209 0.69066871869 0.75145369582 1.2535900368 2.5669274191 2.6011731533 0.17661869244 0.18455883903 0.26496656056 
0.93656127276 0.9087484248 1.2846647003 1.1763394592 1.1688629788 2.5014608869 2.9764439762 2.0906261403 1.6946755698 
1.6508853227 1.8123992941 1.6655415922 0.76610035637 0.75884512454 0.80366915918 2.0544219459 2.4170787689 2.3856467305 
2.3210019366 2.239162951 2.0575751404 2.0044909879 0.23435386175 0.96249765884 2.3410801918 2.2995089068 0.87040243952 
0.75194530089 0.92598345605 0.94491128879 0.7787831258 0.628616104 1.2352032958 1.2088136828 1.3384043867 0.38586253097 
0.31015882861 0.83666213702 0.39314854135 0.59265011171 0.59265011171 0.59265011171 0.71443437063 0.50105469879 0.41822431483 
0.41822431483 0.41822431483 0.56120008568 1.6698090109 0.91906957864 1.607332523 2.0012241907 1.7948505672 1.302391538 
0.87378570075 1.7523168234 0.90029145733 0.19402798007 0.32065590278 0.49585218144 0.83221855935 0.87411483679 1.2797379636 
2.1534540198 1.4372292962 0.91064345108 1.7794128525 2.09477332 1.3912319947 1.0255844629 1.4618844902 1.5074870071 
1.5556292401 1.5707963268 1.5867946677 1.1314439271 1.5271090673 2.2379507839 0.50134254799 1.8264327542 1.6975141849 
0.5122694297 1.6517754397 1.815473649 0.66353871063 0.64001210261 0.52573643438 0.52106942742 0.50209583699 0.48434873789 
0.42141130911 0.67424384576 0.65058548467 0.62831157207 0.53815306024 0.51879937287 0.98942196332 1.7040835087 1.8198088246 
1.7243523472 0.86869530319 1.1439807958 0.77904082577 0.83936544023 0.98226416083 1.0444275962 1.1181270053 0.889657866 
0.78472524936 1.5293145218 2.3851147029 2.1268349889 2.0399074479 1.7245796528 1.5382693026 2.1067010669 1.9169394712 
1.954827251 1.910659094 1.8594692282 1.8645350139 1.8645350139 1.8988038055 1.9212293238 1.9313444772 0.80936686355 
1.4926571261 0.7523430048 1.0158738931 0.75148179599 1.1442340538 1.4852154684 2.0993144595 0.7473578368 0.3814508212 
0.41386853549 2.3512765088 1.9932164125 0.49837202275 0.29821258517 0.28777796292 0.27803056288 2.3288561146 2.2979595708 
2.3132982738 2.4076886543 2.3307156201 1.2389718509 0.8977720524 0.79839339599 0.70920966866 1.0948978999 0.71763229747 
0.6458275499 2.0796565641 1.8657930987 1.7475195674 1.5036963257 1.6717818459 1.4149067019 1.0470091583 1.6484614698 
1.2357351657 1.4402911071 2.0613036128 1.535441094 1.9600269206 1.753725414 2.1704670419 2.6158562192 2.0469052124 
1.8897021687 1.8413758079 1.5892698318 1.2869409964 1.4668397538 0.38679982817 0.89814945947 0.88720459436 0.96169119358 
0.81540480417 0.73857429304 0.62231969853 0.38722610668 0.14270379583 1.0208348525 1.4602343836 1.2889164799 1.1135411744 
1.0796676395 0.98660756325 0.85881187595 0.90392877966 1.0239310929 0.68268778398 0.41442913266 1.6249378379 1.1005655277 
0.91162254592 1.2102727659 1.609687545 1.2270831758 1.3503206363 0.89961943675 1.0710147865 0.84225304011 0.83291492089 
1.5452102298 1.2611744342 0.93387433314 1.4941715981 1.4008790429 1.251532818 0.96740342135 0.70721681017 0.53613904981 
0.79363275929 0.57534640963 0.62618698752 0.75527679617 0.80017915675 0.31996977744 0.62498091951 0.88351886092 0.98980476951 
0.90954679739 0.97718661515 0.78103335508 1.0790373724 1.0372592613 0.77615135239 1.0242474794 0.95254322931 1.1962367976 
1.686974908 0.94103096324 0.74006817491 0.61174339663 0.54143176129 0.52491327776 0.50928621625 0.39912017027 1.2125616517 
1.4748205821 0.96304950365 0.70463003774 0.88615044835 0.98556124894 1.6625110434 0.64690474449 0.4104388085 0.4104388085 
0.4104388085 0.4104388085 0.4104388085 1.4550208978 0.19228628967 0.4104388085 0.39775356242 1.4961854347 0.31313269098 
0.57050674059 0.7614713525 0.60465141224 0.57743049019 1.3263863035 0.2609184778 1.0588789653 0.2609184778 0.76218816771 
0.52682139458 0.89783446582 1.1203058395 0.7260427854 0.80781107221 0.86411068339 0.69456734332 0.36453508774 1.3179779969 
1.2714969737 1.2586385874 1.2491245144 1.2002663572 1.1918387458 1.0964773138 1.0425658104 1.0372046899 0.98841102599 
0.86389406157 0.80870174769 0.76182554921 0.71687359998 0.61747497683 0.61969947965 0.65189969684 0.69348121256 0.66294178127 
0.55426268482 0.52759023848 0.50375490611 0.87604869217 0.84724269572 0.85523158177 0.88391571807 0.8899710772 0.85589209505 
0.90796058615 0.8785734018 0.80394578327 0.88708701516 0.94621497854 0.93603407169 1.0507821572 1.0636978224 1.0867433871 
1.1242619614 1.1659045405 1.267416409 1.0947269965 1.3986055123 0.56192156226 0.53495507379 1.4663262599 1.3908414515 
1.3219889104 1.156955521 0.96933583685 0.77804845424 0.59784210812 0.30531650281 0.22482843936 0.6279050992 0.82110377789 