# vtk DataFile Version 5.1
vtk output
ASCII
DATASET POLYDATA
POINTS 3216 double
6.4800002575 36.99000147 64.5 6.4800002575 37.125001475 65 6.4800002575 37.125001475 65.5 
6.4800002575 37.125001475 66 6.4800002575 37.260001481 65 6.6150002629 37.260001481 64.5 
6.6150002629 37.260001481 65.5 6.6150002629 37.260001481 66 6.6150002629 37.395001486 64.5 
6.6150002629 37.395001486 65.5 6.6150002629 37.395001486 66 6.6150002629 37.530001491 65 
6.6150002629 37.530001491 65.5 6.7500002682 37.530001491 66 6.7500002682 37.665001497 65.5 
6.7500002682 37.665001497 66 6.7500002682 37.800001502 65 6.8850002736 37.395001486 67.5 
6.8850002736 37.395001486 68 6.8850002736 37.395001486 68.5 6.8850002736 37.395001486 69 
6.8850002736 37.530001491 66.5 6.8850002736 37.530001491 67 6.8850002736 37.935001507 65 
6.8850002736 38.070001513 65 6.8850002736 38.205001518 64.5 6.8850002736 38.340001523 64.5 
6.8850002736 38.475001529 64.5 6.8850002736 38.610001534 64.5 6.8850002736 38.74500154 64 
7.0200002789 35.910001427 74.5 7.0200002789 35.910001427 75.5 7.0200002789 35.910001427 76 
7.0200002789 36.045001432 75 7.0200002789 36.720001459 74 7.0200002789 36.855001464 74 
7.0200002789 37.260001481 69.5 7.0200002789 37.260001481 70 7.0200002789 37.260001481 70.5 
7.0200002789 37.260001481 71 7.0200002789 37.260001481 71.5 7.0200002789 37.260001481 72 
7.0200002789 37.395001486 67.5 7.0200002789 37.395001486 68 7.0200002789 37.395001486 69 
7.0200002789 37.395001486 71.5 7.0200002789 37.395001486 72 7.0200002789 38.070001513 65 
7.0200002789 38.205001518 65 7.0200002789 38.74500154 64 7.0200002789 38.880001545 63.5 
7.0200002789 38.880001545 64 7.0200002789 39.01500155 63 7.0200002789 39.01500155 63.5 
7.0200002789 39.01500155 64 7.0200002789 39.150001556 63 7.0200002789 39.150001556 63.5 
7.0200002789 39.150001556 64 7.0200002789 39.285001561 63 7.0200002789 39.285001561 63.5 
7.0200002789 39.285001561 64 7.0200002789 39.420001566 63 7.0200002789 39.420001566 63.5 
7.0200002789 39.420001566 64 7.0200002789 39.555001572 63 7.0200002789 39.555001572 63.5 
7.0200002789 39.555001572 64 7.0200002789 39.690001577 63 7.0200002789 39.825001583 63 
7.0200002789 39.960001588 62.5 7.0200002789 40.095001593 62.5 7.1550002843 34.425001368 78 
7.1550002843 34.560001373 78 7.1550002843 34.695001379 78 7.1550002843 34.830001384 78 
7.1550002843 34.965001389 78 7.1550002843 35.100001395 78 7.1550002843 35.2350014 78 
7.1550002843 35.505001411 77 7.1550002843 35.640001416 77 7.1550002843 35.775001422 76.5 
7.1550002843 35.910001427 75.5 7.1550002843 35.910001427 76 7.1550002843 36.045001432 75.5 
7.1550002843 36.045001432 76 7.1550002843 36.180001438 75 7.1550002843 36.180001438 75.5 
7.1550002843 36.180001438 76 7.1550002843 36.315001443 74.5 7.1550002843 36.315001443 75 
7.1550002843 36.315001443 76 7.1550002843 36.450001448 74 7.1550002843 36.450001448 74.5 
7.1550002843 36.450001448 75 7.1550002843 36.585001454 73.5 7.1550002843 36.585001454 74 
7.1550002843 36.585001454 74.5 7.1550002843 36.720001459 73.5 7.1550002843 36.720001459 74 
7.1550002843 36.855001464 72.5 7.1550002843 36.855001464 73 7.1550002843 36.855001464 73.5 
7.1550002843 36.99000147 72 7.1550002843 36.99000147 72.5 7.1550002843 36.99000147 73 
7.1550002843 37.125001475 71.5 7.1550002843 37.125001475 72 7.1550002843 37.125001475 72.5 
7.1550002843 37.260001481 69.5 7.1550002843 37.260001481 70 7.1550002843 37.260001481 70.5 
7.1550002843 37.260001481 71 7.1550002843 37.395001486 67.5 7.1550002843 37.395001486 68 
7.1550002843 37.395001486 68.5 7.1550002843 39.01500155 63 7.1550002843 39.150001556 63 
7.1550002843 39.150001556 64 7.1550002843 39.285001561 63 7.1550002843 39.285001561 64 
7.1550002843 39.420001566 63 7.1550002843 39.555001572 63 7.1550002843 39.690001577 63 
7.1550002843 39.825001583 63 7.1550002843 39.960001588 62.5 7.1550002843 40.095001593 62.5 
7.1550002843 40.230001599 62 7.1550002843 40.365001604 62 7.2900002897 31.860001266 78.5 
7.2900002897 31.995001271 78.5 7.2900002897 32.130001277 78.5 7.2900002897 32.265001282 78.5 
7.2900002897 32.400001287 78.5 7.2900002897 32.535001293 78.5 7.2900002897 32.670001298 78.5 
7.2900002897 32.670001298 85 7.2900002897 32.805001304 78.5 7.2900002897 32.805001304 85 
7.2900002897 32.940001309 78.5 7.2900002897 33.075001314 78.5 7.2900002897 33.21000132 78.5 
7.2900002897 33.345001325 78.5 7.2900002897 33.48000133 78.5 7.2900002897 33.615001336 78.5 
7.2900002897 33.750001341 78.5 7.2900002897 33.885001346 78.5 7.2900002897 34.020001352 79 
7.2900002897 34.020001352 79.5 7.2900002897 34.020001352 80 7.2900002897 34.155001357 78.5 
7.2900002897 34.155001357 79 7.2900002897 34.155001357 79.5 7.2900002897 34.290001363 78.5 
7.2900002897 34.290001363 79 7.2900002897 34.425001368 78 7.2900002897 34.560001373 78 
7.2900002897 34.695001379 78 7.2900002897 34.830001384 78 7.2900002897 34.965001389 77.5 
7.2900002897 34.965001389 78 7.2900002897 35.100001395 77 7.2900002897 35.100001395 78 
7.2900002897 35.2350014 78 7.2900002897 35.370001405 77.5 7.2900002897 40.500001609 62 
7.2900002897 40.635001615 61.5 7.2900002897 40.635001615 62 7.2900002897 40.77000162 61.5 
7.2900002897 40.77000162 62 7.2900002897 40.905001625 61.5 7.2900002897 40.905001625 62 
7.425000295 31.590001255 87.5 7.425000295 31.590001255 88 7.425000295 31.725001261 87 
7.425000295 31.725001261 88 7.425000295 31.860001266 78.5 7.425000295 31.860001266 87.5 
7.425000295 31.995001271 78.5 7.425000295 31.995001271 87 7.425000295 32.130001277 78.5 
7.425000295 32.130001277 86.5 7.425000295 32.265001282 78.5 7.425000295 32.265001282 86.5 
7.425000295 32.400001287 78.5 7.425000295 32.400001287 86 7.425000295 32.535001293 78.5 
7.425000295 32.535001293 85.5 7.425000295 32.670001298 78.5 7.425000295 32.670001298 85 
7.425000295 32.805001304 78.5 7.425000295 32.805001304 84.5 7.425000295 32.940001309 78.5 
7.425000295 32.940001309 84 7.425000295 33.075001314 78.5 7.425000295 33.075001314 84 
7.425000295 33.21000132 78.5 7.425000295 33.21000132 84 7.425000295 33.345001325 78.5 
7.425000295 33.345001325 83.5 7.425000295 33.48000133 78.5 7.425000295 33.48000133 82.5 
7.425000295 33.48000133 83 7.425000295 33.615001336 78.5 7.425000295 33.615001336 82 
7.425000295 33.615001336 82.5 7.425000295 33.750001341 78.5 7.425000295 33.750001341 80 
7.425000295 33.750001341 80.5 7.425000295 33.750001341 81 7.425000295 33.750001341 81.5 
7.425000295 33.750001341 82 7.425000295 33.885001346 78.5 7.425000295 33.885001346 79.5 
7.425000295 33.885001346 80 7.425000295 33.885001346 80.5 7.425000295 40.77000162 61.5 
7.425000295 40.905001625 61.5 7.425000295 41.040001631 61 7.425000295 41.040001631 61.5 
7.425000295 41.040001631 62 7.425000295 41.175001636 61 7.425000295 41.175001636 61.5 
7.425000295 41.175001636 62 7.5600003004 30.780001223 91 7.5600003004 30.915001228 91 
7.5600003004 31.050001234 90 7.5600003004 31.185001239 89.5 7.5600003004 31.185001239 90 
7.5600003004 31.320001245 89 7.5600003004 31.320001245 89.5 7.5600003004 31.320001245 90 
7.5600003004 31.45500125 88.5 7.5600003004 31.45500125 89 7.5600003004 31.45500125 90 
7.5600003004 31.590001255 87.5 7.5600003004 31.590001255 88 7.5600003004 31.590001255 89 
7.5600003004 31.725001261 87 7.5600003004 31.725001261 88 7.5600003004 31.860001266 87.5 
7.5600003004 31.995001271 87 7.5600003004 41.310001642 61 7.5600003004 41.445001647 60.5 
7.5600003004 41.445001647 61 7.5600003004 41.580001652 60 7.5600003004 41.580001652 60.5 
7.5600003004 41.580001652 61 7.5600003004 41.715001658 60 7.5600003004 41.715001658 61 
7.6950003058 29.835001186 93 7.6950003058 29.970001191 93 7.6950003058 30.105001196 93 
7.6950003058 30.240001202 92.5 7.6950003058 30.375001207 92 7.6950003058 30.375001207 92.5 
7.6950003058 30.510001212 91.5 7.6950003058 30.510001212 92 7.6950003058 30.645001218 91.5 
7.6950003058 30.780001223 91 7.6950003058 30.915001228 90.5 7.6950003058 31.050001234 90 
7.6950003058 31.185001239 90 7.6950003058 41.715001658 59.5 7.6950003058 41.715001658 60 
7.6950003058 41.850001663 59 7.6950003058 41.850001663 59.5 7.6950003058 41.850001663 60 
7.6950003058 41.985001668 58.5 7.6950003058 41.985001668 59 7.6950003058 41.985001668 59.5 
7.6950003058 41.985001668 60 7.6950003058 42.120001674 59.5 7.6950003058 42.120001674 60 
7.8300003111 29.160001159 95 7.8300003111 29.295001164 95 7.8300003111 29.430001169 94 
7.8300003111 29.430001169 94.5 7.8300003111 29.430001169 95 7.8300003111 29.565001175 93.5 
7.8300003111 29.565001175 94 7.8300003111 29.565001175 94.5 7.8300003111 29.565001175 95 
7.8300003111 29.70000118 93.5 7.8300003111 29.70000118 94 7.8300003111 29.835001186 93 
7.8300003111 29.970001191 93 7.8300003111 30.105001196 93 7.8300003111 30.240001202 92.5 
7.8300003111 42.120001674 58.5 7.8300003111 42.120001674 59 7.8300003111 42.255001679 57.5 
7.8300003111 42.255001679 58 7.8300003111 42.255001679 58.5 7.9650003165 28.215001121 97 
7.9650003165 28.350001127 96.5 7.9650003165 28.350001127 97 7.9650003165 28.485001132 96 
7.9650003165 28.485001132 97 7.9650003165 28.620001137 97 7.9650003165 28.755001143 97 
7.9650003165 28.890001148 96 7.9650003165 29.025001153 95.5 7.9650003165 29.160001159 95 
7.9650003165 29.295001164 94.5 7.9650003165 29.295001164 95 7.9650003165 42.390001684 56.5 
7.9650003165 42.390001684 57 7.9650003165 42.390001684 58 8.1000003219 28.080001116 97.5 
8.1000003219 28.080001116 98 8.1000003219 28.080001116 98.5 8.1000003219 28.215001121 97 
8.1000003219 28.215001121 97.5 8.1000003219 28.215001121 98 8.1000003219 28.350001127 96.5 
8.1000003219 28.350001127 97 8.1000003219 28.350001127 98 8.1000003219 28.485001132 96 
8.1000003219 28.485001132 97 8.1000003219 28.620001137 97 8.1000003219 28.755001143 96.5 
8.1000003219 41.580001652 52 8.1000003219 41.580001652 53 8.1000003219 41.715001658 52 
8.1000003219 41.715001658 52.5 8.1000003219 41.715001658 53 8.1000003219 41.850001663 52.5 
[...]
CELL_DATA 3215
SCALARS angle%0A[rad] double
LOOKUP_TABLE default
0 1.500781087 1.4066183917 1.1095456937 1.1474042566 1.010303942 0.92341907993 0.87276632974 0.84905784641 
0.84679350488 0.86310609491 0.36532618343 0.42987450806 0.5132405927 0.62270440196 0.64704567528 0.70319145792 0.34048512349 
0.64411596344 0.61836055442 1.5222684424 1.47638334 1.49664519 1.4594759925 1.4266336014 1.3988846755 1.4278991545 
1.4871419777 1.5817767348 1.5089886562 1.4563020995 1.3802004702 1.4995365812 1.472868079 1.4512346003 1.4708333383 
1.3837874292 0.94486191194 1.0213380486 1.1340775167 1.3094475983 1.3998969062 1.3735268991 0.40814213214 0.35855500781 
0.37023892955 0.38730688302 0.29725464337 0.19288709952 0.17812950743 0.35175159098 0.69350012301 0.19013764369 0.28258468466 
0.29308715582 0.27086044986 0.69901259862 0.69706214536 0.65420753899 0.59960324101 0.56159101814 0.62279375874 0.56157965641 
0.82855885773 0.85053676886 0.67603404275 0.53577785687 0.55639244573 0.55497729476 0.54304551703 0.53087426981 0.52681691557 
0.52181129088 0.53079416575 0.55713405902 0.5629995308 0.034497660054 0.51074386452 0.50565894749 0.38462840407 0.40030716627 
0.43445119098 0.09044180118 0.16468215427 0.25936866337 0.37630561544 0.5573497434 0.83555111908 0.026644069253 0.12473536472 
0.12862715039 0.11520625022 0.10054851497 0.084594278479 0.067464725906 0.049962397184 0.035742532234 0.030781174589 0.07263332077 
0.25109106405 0.51243302114 0.51186291358 0.51642685312 0.51543810594 0.50227290562 0.5139155203 0.51461484894 0.51148405164 
0.57531600409 0.58019405128 0.633942201 0.95693124417 0.18198587215 0.19352088352 0.43859845631 0.41141892364 0.43111388468 
0.40355919052 0.42477957283 0.38224372927 0.40718772269 0.37804211864 0.40718772269 0.39725760729 0.57138683262 0.72233519482 
0.45666345563 0.45844953723 0.39965675629 0.66062218406 0.64011531692 0.61910385481 0.40445441493 0.4446921847 0.092184172639 
0.68483999071 0.65420278581 0.54669087478 0.64584333513 0.63190462379 0.63190462379 0.44697357306 0.52855556959 0.18626009491 
0.87557841572 0.8502421722 0.8259849808 1.5636786237 1.5417096126 1.5496670753 1.5081115632 1.5193823363 1.3914724578 
1.3283176822 1.0870204435 1.0195287799 0.95570390386 0.88644486315 0.73614644627 0.55301321189 0.51799899751 0.49466684387 
0.32262186804 0.33603305384 0.4116341965 0.51893749244 0.60481517862 0.69821628666 0.68386425221 0.72428901712 0.7853981634 
0.8586166752 0.93030826546 1.158217343 1.4011235501 1.4880650971 1.4804345506 1.4920677567 1.5058499236 1.5058086839 
1.5100065803 1.5188826722 1.4766979914 1.4789623624 1.4875321517 1.4158935008 1.08210106 1.0067659 1.0650856884 
1.1560966221 1.1618271442 1.2477917139 1.4675996713 1.2739908916 1.133465242 1.1741041694 1.0573494203 1.1044253501 
0.89498536432 0.75755729588 0.59350411444 0.48087509427 0.49251205823 0.37549360733 0.32891164808 0.43035408001 0.25593135238 
1.3177277825 0.3449926044 1.31106908 0.4675588233 0.68901490054 0.58759880702 1.1977095579 1.1236107905 1.1397884608 
1.1130160058 0.047880423048 0.1349948536 0.095222889906 0.1800952012 0.29262590124 0.34698203378 0.13178726069 0.39940810104 
0.30836892062 0.20172424041 0.22955277122 0.48485781118 0.36820948129 0.34966599124 0.35353388811 0.10128969425 0.020736741941 
0.095723343263 0.17705004299 0.16527275406 0.19955326278 0.17881652084 0.10953134585 0.20946417671 0.19723695016 1.2584266418 
0.095794507883 0.17162967341 0.097941687176 0.097771728045 0.093133097096 0.13662256902 0.13662256902 0.12166036488 0.12166036488 
0.12166036488 0.11218457351 0.12166036488 0.099355463558 0.24075049098 0.089189944597 0.05132580371 0.063461946778 0.076839283823 
0.10910168486 0.071371263146 0.071371263146 0.070307421529 0.087974661901 0.11248522221 0.18359092856 0.048340076499 0.11168216783 
0.081843748783 0.21136686002 0.14065462709 0.18455883903 0.2887022443 0.26371184446 0.10691131778 0.13921628784 0.25992908084 
0.33554832921 1.4102490991 0.63751935597 1.3840661866 1.3581397205 1.3071976539 0.27443366855 0.18322130526 0.093999937712 
0.066077832595 0.093208824474 0.10233879543 0.18775434967 0.21344965794 1.0766127433 0.26360411884 0.26360411884 0.25880564241 
0.23328410007 0.20709168722 0.086561767714 0.13763620798 0.035972069351 0 0.1953745118 0.18633901327 0.15080524829 
0.11547699881 0.10955872106 0.16913163262 0.14438762946 0.056517905811 0.059866843129 0.12016592259 0.27023348116 0.59668282743 
1.6245681634 0.41189423841 0.5057358238 0.25958492406 1.5587650423 1.5136765931 0.87599939052 1.5857303052 1.5587650423 
1.5136765931 0.097044096901 0.46901212056 0.50143093033 1.5328788262 0.79940689534 0.66369026122 1.3840661866 1.3638041246 
1.3352513371 0.12960238805 0.49464736986 0.47211502868 0.73435600777 0.34067708163 0.50239028968 0.23877215485 0.23877215485 
0.23328410007 0.20709168722 0.038986101707 0.28363449295 0.20557155721 0.55437798789 1.5977016937 0.20856383557 0.14690743337 
1.1030765324 0.067026018958 0.12181256137 0.31022839985 0.056259201859 0.17395366672 0.18443205785 0.1453340225 0.10390829002 
0.27635367476 1.2821935124 1.2575759712 0.2564639751 0.56405461896 0.79205236715 1.2521825866 0.69991200551 1.1861850406 
1.1575465567 0.46284229329 1.2794632957 1.2521825866 1.1861850406 1.1575465567 0.60499659208 1.1296095506 1.1296095506 
0.4927086659 1.0466042978 0.51200830445 0.63144552073 0.54728666146 0.46800346681 0.3825140597 0.2900251327 0.13323447389 
0.048858651388 0.3564249768 0.1319997738 0.091128976514 1.1023905482 0.9917740808 0.25571181466 1.2584266418 0.081843748783 
0.081843748783 0.13636681913 0.19190103398 0.086670946767 0.12960238805 0.89965539672 0.25806059506 0.026060684806 1.3840661866 
1.3842651986 1.3583647906 0.039935009694 0.039935009694 1.307536296 1.2798336739 1.2525830728 1.2258129616 1.0508825111 
0.9917740808 0.25555900863 0.13375055591 0.96674694664 1.053402095 0.089850491221 0.36595190774 0.84590175002 0.8366363099 
0.3066468953 0.84592684677 1.5039498645 0.55843163353 0.5635609378 0.097038441501 0.026416002513 1.4629298464 1.4101915911 
0.039654568145 0.081217127367 0.038837563467 0.13721600333 0.10953134585 0.11755440689 0.46569649891 0.21520688218 1.2003036653 
1.2003036653 1.6783404504 1.651590561 1.6247243175 1.5707963268 1.5408187995 1.5108950543 1.4810782967 1.4366830404 
1.4037146722 1.3711087679 1.3389274402 1.2368993191 1.2029150531 1.1697980268 1.1375852549 0.16287404906 0.058219427122 
0.13773179196 0.070384979243 1.1746063999 0.11203368883 1.1494498537 1.1995480654 0.20709168722 1.597633783 1.597633783 
0.33098872001 1.2136832699 1.1581728017 0.30149618916 0.9736573119 1.0447668563 0.45599476462 0.44696326954 0.12143279567 
0.91940142941 0.84590175002 0.84590175002 0.85653389163 0.79839339599 0.87557841572 0.49544827587 0.39273743916 0.34086577251 
0.46500280778 0.8502421722 0.23698083845 0.8259849808 0.48643783195 0.34086577251 0.40957490903 1.2265242596 0.36448057671 
0.23048689291 1.2265242596 1.2584266418 1.2265242596 1.2003036653 1.2265242596 1.5056964439 1.6783793414 1.6516198771 
1.6247439326 1.5707963268 1.5408053207 1.5108681693 1.4810381491 1.4366075936 1.4036213032 1.3709980728 1.3388001062 
1.236669098 1.2026655421 1.169530827 1.1373019737 0.40241160279 0.41333121369 0.43717405723 0.37385987887 0.44868297674 
0.53623459527 0.19229403557 0.9957955508 0.10210400491 0.87127129292 0.87127129292 0.16697693222 0.28800406344 0.9957955508 
0.87127129292 0.086561767714 0.15664832147 0.03646381696 0.099519397152 0.055862268729 0.035972069351 0.59955755931 0.18011335225 
0.14286062089 0.39084882493 0.19349412395 0.13896303165 0.35643666985 0.99875664775 1.1328678584 0.9957955508 1.1328678584 
1.1328678584 0.41120133213 0.20121015817 0.20452812247 0.080823550303 0.16036557322 0.2164722586 0.19054454292 0.24267116418 
0.19054454292 0.19509276448 1.4900898499 1.4633686237 0.36020118026 0.30141709415 0.35037895883 1.4111043729 0.30836892062 
0.99875664775 0.99875664775 0.97244206163 0.20610362998 0.15947349712 0.14144465539 0.20841514172 0.58795075227 1.4104212533 
1.3842651986 0.25085126809 0.21487699451 0.19955326278 0.11755440689 0.73105913658 0.60466586443 1.1924476513 1.1501594637 
1.1208931167 1.1397884608 0.20495862768 0.18300234143 0.26773612185 0.15615398149 0.53832799766 0.28167516264 0.18237048322 
0.26943663868 0.10877440316 0.1738244354 0.47289209917 0.21795909401 0.32481571044 0.28581336055 0.090505935959 0.29746631204 
0.21845904098 0.1496635393 0.012957924527 0.30423197881 1.0406126212 0.97887833373 1.0110738858 0.27176051913 1.0110738858 
0.38480448257 0.30582124099 0.41119065088 0.49504933746 0.58275202722 0.4322964916 0.36392268976 0.2855567371 0.32361857728 
0.29962050129 0.24059641529 0.23860816111 0.058910677785 0.23265268364 0.21645076719 0.18310925247 0.21174801773 0.064875521129 
0.12700784722 0.12700784722 0.025540304386 0.093809669484 0.050878228202 0.099848964749 0.30134130503 0.31415917294 0.28210413452 
0.2261546932 0.17779628577 0.10952669201 0.080126569309 0.11033016177 0.08481807764 0.026837203318 0.060086542873 0.085079281462 
0.085079281462 0.085079281462 0.038054367628 0.060230578582 0.060230578582 0.027149560348 0.027813352647 0.13087497114 0.13674820978 
0.14504187157 0.15760634395 0.17877760359 0.19560893438 0.02699344294 0.093718826816 0.13686081664 0.26505775269 0.053947605782 
0.053947605782 0.3422497229 0.29191959709 0.077089689779 0.096774483767 0.055521441212 0.064676540544 0.09661420808 0.2164722586 
0.11405416391 0.11405416391 0.11405416391 0.076219594234 0.13280214949 0.30810994611 0.23287011971 0.29096147926 0.12016592259 
0.16501408116 0.21633170052 0.25529491835 0.33474934859 0.55843163353 1.597633783 0.5057358238 1.5439588706 0.25348926207 
1.4568244999 1.4026922811 1.5227580223 1.4757800754 1.2099956299 1.172408243 1.1862733825 1.0840175132 0.1524750131 
0.16610522462 0.10191434589 0.29864058333 0.15156375429 0.20121015817 0.15654312447 0.16385914931 0.13681347087 0.13681347087 
0.17068806406 0.16278140806 0.16278140806 0.13681347087 0.13681347087 0.085174925961 0.26967537884 0.060300643582 0.32204160195 
0.11086736701 0.62653741351 1.4508467189 0.66975641474 1.4508467189 0.66975641474 1.4392105695 1.4665251551 1.4392105695 
1.4641731165 1.4641731165 1.4645873688 1.4645873688 0.10986609504 0.21414149488 0.21048719227 0.14117000824 0.22263993585 
0.18958357907 0.26371184446 0.22821642677 0.23851315123 0.24941371176 1.4403586944 0.13533240412 0.097044096901 0.060300643582 
0.080823550303 0.080823550303 0.053947605782 0.1730487557 0.076219594234 0.053947605782 0.085174925961 0.085174925961 0.060300643582 
0.060300643582 0.048582182906 0.068312304488 0.060300643582 0.060300643582 0.13686081664 0.26505775269 0.1924254786 0.23287011971 
0.29096147926 0.2382227218 0.21146365257 0.11747382076 0.094820926088 0.059233276693 1.4146587002 0.38226115303 1.3158046696 
0.38503133825 1.3891649394 0.36665419431 0.26904737072 0.26307400262 0.49734632972 0.5227590528 1.5707963268 0.31753735361 
0.5227590528 1.5707963268 0.36935665706 0.5232290173 0.32935024301 0.14753135273 0.049249727613 0.028244388959 0.049436274576 
0.088515001239 1.2852250121 0.9571436477 1.1986936604 1.1841602264 1.1048466692 1.0713283625 1.045823832 0.98829925001 
0.96319371307 0.92941775813 0.90356181197 0.83192380978 0.85188264568 0.85188264568 1.2018688606 1.1649112536 1.148635119 
1.1048466692 1.0753867356 0.98525922984 0.95863801995 0.94044831745 0.89666927058 0.82884121872 0.79882584983 0.80433846276 
0.71852854157 1.7994775008 1.4255371466 1.4305334821 1.5611288424 1.8443298803 0.047366916802 0.020029423287 0.07879910551 
0.088955538252 0.14319239979 0.07189024401 0.051857628024 1.3627212525 1.3639076406 0.34522870526 0.36321999205 0.23957390138 
0.26600758903 0.32741470956 0.44564284124 0.73835188508 1.5977016937 1.5707963268 0.18589894912 0.1754453996 0.1754453996 
0.24941371176 0.28853223462 0.25069766495 0.077313859596 0.064308531402 0.14465169444 0.13210294659 0.10069443737 0.47141083022 
1.4902354786 0.86899931141 1.7145268267 0.044817573449 0.084638093885 0.085174925961 1.651357175 0.53158553562 1.558725665 
1.5438421354 1.5438421354 0.026750893396 0.13681347087 0.10624574709 0.14438762946 0.040042788737 0.076756302213 0.14070238601 
0.072483222872 0.19229403557 0.17119215909 0.15156375429 0.11405416391 0.22213630527 0.19966378087 0.15340548689 0.13065314963 
0.16769098408 0.19560893438 0.42236931676 0.13280214949 0.097044096901 0.54908088586 1.5977897697 1.4318603603 1.175247279 
0.10624574709 0.15615398149 0.58824654866 0.58824654866 0.58824654866 0.097044096901 0.19723316051 0.1754453996 0.1047104816 
0.19723316051 0.25348926207 0.21645076719 0.18835430889 0.19966378087 0.15667614006 0.18900978246 0.96426451253 1.7409311757 
1.7036283654 0.22153326866 0.34854082032 0.39693781753 0.07412896038 0.088515001239 1.5977016937 1.6244326355 1.6244326355 
0.21645076719 0.18000885301 0.37042094303 0.2130967206 0.3785622214 0.38470492125 0.39373304817 0.3422497229 0.52212672302 
0.19229403557 0.19229403557 0.19229403557 0.13798260353 0.15217202363 0.25348926207 0.38763662324 1.4151060575 0.46191836998 
0.2086005204 0.02699344294 0.20429290315 1.2584145674 1.5707963268 0.38429210927 0.17793649419 1.232060395 0.50193140225 
1.3822818477 0.32371551941 0.34490151987 0.35183421104 0.35505069214 0.3976132312 0.50001129072 0.72699353965 0.6070875376 
0.48191821654 0.37624715397 0.38170476367 0.083773011299 0.11203368883 1.1989402395 0.18609050538 0.14480749938 0.097505274373 
0.18000885301 0.14437897231 0.057435341872 1.3607219015 1.3800055675 1.3856406889 0.58367420342 0.76215212732 1.3785022912 
1.3641229955 1.3022303281 1.2715144132 1.2836984004 0.13391616125 0.13672460469 0.13672460469 0.13672460469 1.1746063999 
1.1302670518 0.35621404615 0.22083211406 0.21037624022 0.17552626309 0.21005654154 0.27178569972 1.282387337 1.31106908 
1.2836984004 1.3681013988 1.3401010763 0.53222379225 0.75383358469 1.3934579805 1.3694907941 1.3975218227 1.3353716374 
1.4009041664 1.4009041664 0.13350784495 0.16504683392 1.2870989066 1.3607219015 1.2866492827 0.64967406805 0.09157441144 
0.080100080112 1.4387848375 1.4373742017 0.15514269244 0.15514269244 0.15914209654 1.2866492827 1.2751400216 1.2253324464 
0.14620586174 0.20892294042 1.2751400216 1.2446758231 0.23554498974 0.18679661924 0.35554632246 0.29379619174 0.099355463558 
0.34143855724 0.43035408001 0.067636315169 0.086059281814 1.2446758231 1.2072383011 0.22219367249 1.0334651136 1.0064322745 
0.98029383978 1.2923160311 0.40271163072 1.2253324464 0.10510863385 0.10510863385 0.10510863385 1.1355226812 0.10510863385 
0.10510863385 1.228478435 1.9717202836 1.9561098288 1.2072383011 1.137384592 1.9526723741 1.8582229142 1.1883628404 
0.10955077635 1.0161970627 0.92185571835 0.90318961783 0.33785906631 0.52446152498 0.39547070468 0.457256621 0.35781523539 
0.41950760162 0.12890808054 0.14154027686 0.10985592847 0.10526781311 1.0891926512 0.2766492642 0.030055402045 0.12564365239 
1.2161040272 1.3627212525 0.081219202317 0.077414667206 0.23673129068 1.0690294277 1.0460466671 0.057733598508 0.10191434589 
0.28414704405 0.57653686281 0.15816274624 1.3375954602 0.93177216472 0.89377253673 0.96169119358 0.96169119358 1.3124641753 
0.18396253397 1.3364120074 1.3114673689 0.27251315852 0.12538926913 0.3838253379 1.2923160311 1.2633122392 1.3978236981 
1.3978236981 0.25987013407 0.82822077548 0.82925913072 0.83528547665 0.86010041209 0.8502421722 1.334480416 1.3088779235 
1.282387337 0.061321424845 0.055811676889 0.077422803199 1.3093481855 1.281301176 1.2553447793 1.281301176 1.2582899652 
1.2930810566 1.2264692308 0.17294832892 0.15606264912 0.24277696105 1.2845494143 0.24919076158 0.68383492641 0.77090022917 
1.2845494143 0.20940997549 0.13896303165 0.2639866745 0.38170476367 1.2553447793 0.3762805186 1.0022307739 1.2287711505 
0.17661869244 1.202690881 0.061961991762 0.79363837169 0.61715238629 0.26044651448 0.77829851928 0.61715238629 0.035972069351 
0.23113525188 0.2887022443 0.26371184446 0.23837966363 0.19894406656 0.28982733859 0.26496656056 0.15786887342 0.29163335928 
0.18679661924 0.30779225882 0.14438762946 0.23501842808 0.69861359436 0.46684792883 0.17739884451 0.14508388686 0.099724697095 
0.16743953858 0.44585674038 0.099355463558 0.3568304508 0.62810834524 0.13154201349 0.079333667927 0.058910677785 0.04523691492 
0.052896560373 0.19229403557 0.24837771318 0.22613848708 0.52644513821 1.5441501035 0.39972145948 0.48620759502 1.5442722347 
0.14438762946 0.12016592259 0.086561767714 1.1995480654 0.12261805068 0.23340361179 0.26732388278 0.36862024516 0.084038233537 
0.16913163262 0.13304251116 0.085452613719 0.1067962627 0.037084866745 0.21318807457 0.026373430149 0.21645076719 0.27462745894 
0.26332908673 0.24246622067 0.16913163262 0.16913163262 0.14438762946 0.15217202363 0.13028657557 0.65757865592 1.7047921697 
0.16757402076 0.13028657557 0.96728953738 0.79922757123 0.18712695256 0.20974021636 0.13772953843 0.76477255511 0.68231065457 
0.52023079067 0.16842284616 0.25490474408 0.49120788416 0.67880448686 0.11399172115 0.19120703483 0.25320232372 0.11399172115 
0.19120703483 0.31808540275 0.094000103633 0.108513982 0.31808540275 1.3845954757 0.29684921859 0.11723193303 0.078040938461 
0.081414495636 1.3587383245 1.3587383245 0.33553486081 0.26480733786 0.3339995219 0.28048730446 0.28395313896 0.20606527392 
0.22573173142 0.13743622002 0.24674849069 0.23621179894 0.4555096221 0.658273785 1.0001508088 0.057435341872 0.071371263146 
1.3337436558 0.055862268729 0.055862268729 0.3724220607 0.35512082296 0.35840253098 0.25041643209 0.23589289434 0.23297192862 
0.23175056395 0.23964009719 0.29618133987 0.68425026882 0.16673658246 0.16855786741 0.37488405784 0.37365061756 0.38229609254 
0.38085780411 0.36745226802 0.37329618368 0.37272998066 0.38512300744 0.42846343341 0.4453757677 0.47875671983 0.55204840265 
0.35307209394 0.055862268729 0.15344762791 1.2575759712 0.077005617892 0.36833717326 1.2253840578 0.044978634724 0.055862268729 
0.055862268729 0.15219676646 1.2253840578 0.035972069351 0.035972069351 0.23747325209 0.14345262827 0.15315879208 0.26753180907 
0.14827852555 0.081761245909 0.45736370564 1.5194705231 1.4093322643 1.5144029373 1.3014131961 1.2525830728 0.20476197288 
0.2850263435 0.26777989929 0.51074386452 0.50565894749 0.46949118404 0.38724206092 0.68223299053 0.36164439455 0.61954354301 
0.59589990378 0.59589990378 0.57174614516 0.33205143264 0.31077512246 0.30409960895 0.30409960895 0.66312015757 0.59589990378 
0.57174614516 0.57174614516 0.93932682896 0.67603404275 0.74560975337 1.0537998987 0.038451515539 0.41915632495 0.3721525439 
0.32865090659 0.27312260782 0.21574440219 0.12473620568 0.10659582747 0.13895041589 0.31930518654 0.67880448686 0.19956918715 
0.71852854157 0.69843363643 0.69843363643 0.58310073471 0.58310073471 0.82855885773 0.53204106695 0.80421303498 0.5417558423 
0.79773152761 1.1324081255 1.2904850793 1.1941390127 1.201223278 1.217078811 1.2502557453 1.2934468601 0.983803902 
0.57538047654 0.65318608725 0.41088613756 0.68312554082 1.2083266358 1.0968726507 0.96823697585 0.96823697585 0.96823697585 
0.95240379985 0.93638258739 0.68521731025 0.67337702043 1.1448935077 0.44501877486 0.49624810841 0.17280759785 0.30689662349 
0.72488162505 0.75320695885 0.70178294858 0.75158941467 0.70564280142 0.95117025036 1.2286158048 0 0.47745332958 
0.41575748846 0.47909144747 0.54106526338 0.59424948416 0.53906702999 0.58685170222 0.56920847354 0.16081380978 0.23582926532 
0.30955630002 0.29395893536 0.30562942083 0.34104415271 0.41087798664 0.48682172202 0.53843489261 0.61083083714 0.70530451269 
0.34669272842 0.50491418976 0.74728470469 0.94820033771 1.7095610669 1.6632315752 1.5788163512 1.3322406661 1.8192017142 
1.7424567033 1.6568945956 1.3290673253 1.180938253 1.5707963268 0.39428680938 0.32379631141 0.27875293799 0.25314456911 