# vtk DataFile Version 5.1
vtk output
ASCII
DATASET POLYDATA
POINTS 2619 double
26.325001046 58.995002344 160 26.325001046 59.13000235 159.5 26.325001046 59.265002355 159.5 
26.325001046 59.40000236 159.5 26.325001046 59.535002366 159.5 26.325001046 59.670002371 159.5 
26.325001046 59.805002376 159.5 26.325001046 59.940002382 159.5 26.325001046 60.075002387 159 
26.325001046 60.210002393 159 26.460001051 58.995002344 160 26.460001051 60.345002398 159 
26.595001057 58.725002334 160 26.595001057 58.860002339 160 26.595001057 60.480002403 159 
26.730001062 58.455002323 160 26.730001062 58.590002328 160 26.730001062 60.480002403 159 
26.865001068 57.645002291 160.5 26.865001068 57.780002296 160.5 26.865001068 57.915002301 160.5 
26.865001068 58.050002307 160.5 26.865001068 58.185002312 160.5 26.865001068 58.320002317 160.5 
26.865001068 60.615002409 159 27.000001073 57.37500228 161 27.000001073 57.510002285 161 
27.000001073 60.615002409 159 27.135001078 57.240002275 161 27.135001078 60.750002414 159 
27.270001084 57.105002269 161 27.270001084 60.750002414 159 27.405001089 56.160002232 161.5 
27.405001089 56.295002237 161.5 27.405001089 56.430002242 161.5 27.405001089 56.565002248 161.5 
27.405001089 56.700002253 161.5 27.405001089 56.835002258 161.5 27.405001089 56.970002264 161.5 
27.405001089 60.885002419 159 27.540001094 56.025002226 162 27.540001094 61.020002425 158.5 
27.6750011 55.485002205 162 27.6750011 55.62000221 162 27.6750011 55.755002216 162 
27.6750011 55.890002221 162 27.6750011 61.020002425 158.5 27.810001105 33.48000133 184 
27.810001105 33.615001336 184 27.810001105 33.750001341 183.5 27.810001105 55.350002199 162.5 
27.810001105 61.020002425 158.5 27.94500111 33.885001346 183 27.94500111 34.020001352 182.5 
27.94500111 34.155001357 182.5 27.94500111 55.215002194 162.5 27.94500111 61.020002425 158.5 
28.080001116 34.155001357 181.5 28.080001116 34.290001363 181.5 28.080001116 34.290001363 182 
28.080001116 55.080002189 162.5 28.080001116 61.020002425 158.5 28.215001121 34.425001368 181.5 
28.215001121 54.945002183 162.5 28.215001121 61.020002425 158.5 28.350001127 29.970001191 167 
28.350001127 34.560001373 181 28.350001127 53.730002135 162.5 28.350001127 53.86500214 162.5 
28.350001127 54.000002146 162.5 28.350001127 54.135002151 162.5 28.350001127 54.270002156 162.5 
28.350001127 54.405002162 162.5 28.350001127 54.540002167 162.5 28.350001127 54.675002173 162.5 
28.350001127 54.810002178 162.5 28.350001127 61.020002425 158.5 28.485001132 30.105001196 167.5 
28.485001132 30.240001202 167.5 28.485001132 30.375001207 167.5 28.485001132 30.510001212 167.5 
28.485001132 30.645001218 167.5 28.485001132 30.780001223 167.5 28.485001132 34.695001379 180.5 
28.485001132 53.055002108 163 28.485001132 53.190002114 163 28.485001132 53.325002119 163 
28.485001132 53.460002124 163 28.485001132 53.59500213 163 28.485001132 61.020002425 158.5 
28.620001137 30.915001228 168 28.620001137 34.830001384 180 28.620001137 34.830001384 180.5 
28.620001137 52.380002081 163 28.620001137 52.515002087 163 28.620001137 52.650002092 163 
28.620001137 52.785002097 163 28.620001137 52.920002103 163 28.620001137 61.020002425 158.5 
28.755001143 31.050001234 168 28.755001143 31.185001239 168 28.755001143 34.830001384 180 
28.755001143 34.965001389 180 28.755001143 51.84000206 163 28.755001143 51.975002065 163 
28.755001143 52.110002071 163 28.755001143 52.245002076 163 28.755001143 61.15500243 158 
28.890001148 31.320001245 168.5 28.890001148 31.45500125 168.5 28.890001148 31.590001255 168.5 
28.890001148 31.725001261 168.5 28.890001148 34.965001389 180 28.890001148 51.705002055 163 
28.890001148 61.15500243 158 29.025001153 31.860001266 168.5 29.025001153 35.100001395 179.5 
29.025001153 51.435002044 163 29.025001153 51.570002049 163 29.025001153 61.15500243 158 
29.160001159 31.995001271 168.5 29.160001159 35.100001395 179.5 29.160001159 51.030002028 163 
29.160001159 51.165002033 163 29.160001159 51.300002038 163 29.160001159 61.290002435 158 
29.295001164 32.130001277 168.5 29.295001164 35.100001395 179 29.295001164 35.2350014 179.5 
29.295001164 50.625002012 163 29.295001164 50.760002017 163 29.295001164 50.895002022 163 
29.295001164 61.290002435 158 29.430001169 32.265001282 168.5 29.430001169 35.2350014 179 
29.430001169 35.2350014 179.5 29.430001169 49.815001979 163 29.430001169 49.950001985 163 
29.430001169 50.08500199 163 29.430001169 50.220001996 163 29.430001169 50.355002001 163 
29.430001169 50.490002006 163 29.430001169 61.290002435 158 29.565001175 32.400001287 168.5 
29.565001175 35.370001405 179 29.565001175 49.815001979 163 29.565001175 61.425002441 158 
29.70000118 32.535001293 169 29.70000118 35.505001411 178.5 29.70000118 35.505001411 179 
29.70000118 48.465001926 164 29.70000118 48.600001931 163.5 29.70000118 48.735001937 163.5 
29.70000118 48.870001942 163.5 29.70000118 49.005001947 163.5 29.70000118 49.140001953 163.5 
29.70000118 49.275001958 163.5 29.70000118 49.410001963 163.5 29.70000118 49.545001969 163.5 
29.70000118 49.680001974 163.5 29.70000118 61.560002446 157.5 29.835001186 32.670001298 169 
29.835001186 32.805001304 169 29.835001186 35.505001411 178.5 29.835001186 35.505001411 179 
29.835001186 46.575001851 165 29.835001186 46.710001856 165 29.835001186 46.845001861 165 
29.835001186 46.980001867 165 29.835001186 47.115001872 165 29.835001186 47.250001878 165 
29.835001186 47.385001883 165 29.835001186 47.520001888 165 29.835001186 47.655001894 165 
29.835001186 47.790001899 164.5 29.835001186 47.925001904 164.5 29.835001186 48.06000191 164.5 
29.835001186 48.195001915 164 29.835001186 48.33000192 164 29.835001186 61.560002446 157.5 
29.970001191 32.940001309 169.5 29.970001191 35.640001416 178.5 29.970001191 45.630001813 165 
29.970001191 45.765001819 165 29.970001191 45.900001824 165 29.970001191 46.035001829 165 
29.970001191 46.170001835 165 29.970001191 46.30500184 165 29.970001191 46.440001845 165 
29.970001191 61.560002446 157.5 30.105001196 33.075001314 169.5 30.105001196 35.640001416 178.5 
30.105001196 43.065001711 167 30.105001196 43.200001717 167 30.105001196 43.335001722 167 
30.105001196 43.470001727 167 30.105001196 45.360001802 165.5 30.105001196 45.495001808 165.5 
30.105001196 61.560002446 157.5 30.240001202 33.21000132 169.5 30.240001202 35.775001422 178.5 
30.240001202 42.930001706 167 30.240001202 43.605001733 167 30.240001202 43.740001738 167 
30.240001202 43.875001743 167 30.240001202 44.010001749 167 30.240001202 44.145001754 167 
30.240001202 44.28000176 167 30.240001202 44.415001765 167 30.240001202 44.55000177 167 
30.240001202 44.685001776 167 30.240001202 44.820001781 167 30.240001202 44.955001786 166.5 
30.240001202 45.090001792 166 30.240001202 45.225001797 166 30.240001202 61.560002446 157.5 
30.375001207 33.345001325 169.5 30.375001207 35.775001422 178.5 30.375001207 42.795001701 167.5 
30.375001207 61.560002446 157.5 30.510001212 33.48000133 169.5 30.510001212 35.910001427 178 
30.510001212 40.905001625 168 30.510001212 41.040001631 168 30.510001212 41.175001636 168 
30.510001212 41.310001642 168 30.510001212 41.445001647 168 30.510001212 41.580001652 168 
30.510001212 41.715001658 168 30.510001212 41.850001663 168 30.510001212 41.985001668 168 
30.510001212 42.120001674 168 30.510001212 42.255001679 168 30.510001212 42.390001684 168 
30.510001212 42.52500169 168 30.510001212 42.660001695 168 30.510001212 61.560002446 157.5 
30.645001218 33.615001336 169.5 30.645001218 35.910001427 178 30.645001218 40.77000162 168 
30.645001218 61.560002446 157.5 30.780001223 33.750001341 169.5 30.780001223 35.775001422 170 
30.780001223 35.910001427 170 30.780001223 35.910001427 178 30.780001223 36.045001432 170 
30.780001223 36.180001438 170 30.780001223 36.315001443 170 30.780001223 36.450001448 170 
30.780001223 36.585001454 170 30.780001223 36.720001459 169.5 30.780001223 36.855001464 169.5 
30.780001223 36.99000147 169.5 30.780001223 37.125001475 169.5 30.780001223 37.260001481 169.5 
30.780001223 37.395001486 169.5 30.780001223 37.530001491 169.5 30.780001223 37.665001497 169.5 
30.780001223 37.800001502 169.5 30.780001223 37.935001507 169 30.780001223 38.070001513 169 
30.780001223 38.205001518 169 30.780001223 38.340001523 168.5 30.780001223 38.475001529 168.5 
30.780001223 38.610001534 168.5 30.780001223 38.74500154 168.5 30.780001223 38.880001545 168.5 
30.780001223 39.01500155 168.5 30.780001223 39.150001556 168.5 30.780001223 39.285001561 168.5 
30.780001223 39.420001566 168.5 30.780001223 39.555001572 168.5 30.780001223 39.690001577 168.5 
30.780001223 39.825001583 168.5 30.780001223 39.960001588 168.5 30.780001223 40.095001593 168 
30.780001223 40.230001599 168 30.780001223 40.365001604 168 30.780001223 40.500001609 168 
30.780001223 40.635001615 168 30.780001223 61.560002446 157.5 30.915001228 33.885001346 169.5 
30.915001228 34.020001352 169.5 30.915001228 34.155001357 169.5 30.915001228 34.290001363 169.5 
30.915001228 34.425001368 169.5 30.915001228 34.560001373 169.5 30.915001228 34.695001379 169.5 
30.915001228 35.505001411 170 30.915001228 35.640001416 170 30.915001228 35.775001422 170 
30.915001228 36.045001432 178 30.915001228 61.695002452 157 31.050001234 34.830001384 170 
31.050001234 34.965001389 170 31.050001234 35.100001395 170 31.050001234 35.370001405 170 
31.050001234 36.045001432 177.5 31.050001234 36.045001432 178 31.050001234 61.695002452 157 
31.185001239 35.2350014 170 31.185001239 35.370001405 170 31.185001239 36.180001438 177.5 
31.185001239 36.180001438 178 31.185001239 61.695002452 157 31.320001245 35.370001405 170 
31.320001245 36.180001438 177.5 31.320001245 36.180001438 178 31.320001245 61.695002452 157 
31.45500125 35.370001405 170 31.45500125 36.315001443 177.5 31.45500125 61.695002452 157 
31.590001255 35.505001411 170 31.590001255 36.315001443 177.5 31.590001255 61.695002452 157 
[...]
CELL_DATA 2618
SCALARS angle%0A[rad] double
LOOKUP_TABLE default
0 0.58577746494 0.27703928157 1.1891188229 1.0794291858 0.12837265611 1.0822993801 1.015774944 0.95431383711 
1.0018695902 0.92364445497 0.64957869124 0.90297510704 0.8634438782 0.82625069064 0.79127037846 0.75837025115 0.75459577332 
0.76507124403 0.74008232446 0.71693472823 0.69558646972 0.73626509978 0.72305990316 0.71266468697 0.70551853517 0.70229773825 
0.70405447449 0.66815120723 0.7035545796 0.73954856595 0.59092965022 0.5751920537 1.5649142819 1.7160641583 0.20667421932 
0.18130536664 0.17472871949 1.4292564048 0.15465168708 0.15465168708 0.41722667936 0.14649409351 0.14114150652 0.13632339949 
1.5745610825 1.4633069398 1.2623861427 1.0927168077 0.81874298463 0.95861994154 1.5707963268 1.5707963268 1.5255099843 
1.478207691 1.4292055003 1.3829768848 1.3375460387 1.4150122342 1.3095845774 1.2678049783 1.2269484767 1.1791316239 
1.1384520211 1.0992741355 1.0619689923 1.008609565 0.97704664166 0.82885022941 0.80032360292 0.78256982143 0.76661062777 
0.61864599866 0.59684103969 0.57635091149 1.2923349583 0.21902729066 0.34321043762 0.65470392225 0.50936244355 0.12948726663 
0.25070013453 0.25351603939 0.24648958653 0.24350811866 0.35960894486 0.35960894486 0.35960894486 0.15209302236 0.3791803054 
0.37984580685 0.38485833089 0.38608884825 0.3791803054 0.48469702048 0.48469702048 0.48469702048 1.5414320674 1.5730300718 
1.5977739416 1.4218341258 1.1032690226 0.88946361465 0.5277883041 0.29717536621 0.13703418974 0.18296995657 0.26376868969 
0.4610406569 0.44284290516 0.676479504 0.5879080421 0.54207458271 0.76625090006 0.65921626776 0.53903175367 0.38834942789 
1.0108241345 0.95863801995 1.0602628394 1.5243612514 1.5999948175 1.6275246579 1.6155108225 1.5859216019 1.5710892541 
1.6020522339 1.5674732824 1.5322123564 1.4192164166 1.3816651998 1.331158665 1.2802811437 1.2709504323 1.2013507768 
1.1319002911 1.0237555213 0.90302406097 0.82872863249 0.78299241142 0.73977544244 0.69908076488 0.54682079286 0.51526042032 
0.43059665976 0.34937848852 0.27900567851 0.25272586973 0.094590423121 0.051329477088 0.035404694849 0.065717236185 0.13129705579 
0.13129705579 0.13129705579 0.16490537121 0.13254226206 0.13832860168 0.30370983064 0.28927020178 0.2757912323 0.26321047983 
0.17837427699 0.13940532233 0.023334637552 0.01201665968 0 0.10870989781 0.12381693152 0.13984159625 0.1687481881 
0.17997025238 0.2946100149 0.42275049633 0.44346507977 0.46529323036 0.47251417848 0.57104755587 0.46292857347 0.16869426496 
0.17005506537 0.18309791243 0.18309791243 0.18309791243 0.13170488065 0.14285407154 0.15364041805 0.16401603139 0.27553484245 
0.37608743832 0.39427941944 0.41347519506 0.43373661961 0.43365731606 0.28032327022 0.068072118162 0.11798278163 0.16385195782 
0.16385195782 0.41512911635 0.32292644304 0.30106851432 0.16978589554 0.13507627568 0.035522196712 0.039923559234 0.034155604344 
0.034155604344 0.034155604344 0.039923559234 0.017204766353 0.040564640509 0.05378761814 0.05378761814 0.05378761814 0.30157784399 
0.29126573627 0.27347999233 0.42689017653 0.4104289959 0.30548509732 0.52345238362 0.43499266291 0.44478691019 0.43085913857 
0.41791921051 0.40589409427 0.33268657248 0.27608891602 0.28019699907 0.44478691019 0.42541801993 0.43624681002 0.43624681002 
0.43624681002 0.43624681002 0.43624681002 0.44147987268 0.44775177421 0.44641778988 0.41986096211 0.41329271944 0.31038021345 
0.18759493136 0.1866292806 0.1468595478 0.12338687774 0.011711885135 0.024042801845 0.12194956897 0.12626108173 0.14981673781 
0.17430007195 0.27970924831 0.27970924831 0.26163099199 0.26163099199 0.26163099199 0.3675947331 0.38271796181 0.15410722121 
0.16454651953 0.27760520211 0.39959720296 0.41724611123 0.43591614929 0.45567086978 0.45567086978 0.45567086978 0.44933505076 
0.41605668131 0.51617136862 0.53734429425 0.29298474028 0.29112699511 0.29449479854 0.31966510612 0.40919318414 0.16274524327 
0.16274524327 0.16274524327 0.17473147672 0.17576028633 0.17576028633 0.27731234778 0.06688236532 0.2070578239 0.28290513059 
0.32241689186 0.4757191116 0.51374373733 0.55278127367 0.53713681234 0.53629896847 0.51396043803 0.66879356282 0.70695153074 
0.81044760324 0.86639970282 1.0205366406 1.0532554874 1.0906984528 1.1294150273 1.1534503347 1.1778255192 1.2253182272 
1.2716650715 1.2908265834 1.2798610155 1.3170483244 1.27366791 1.2438124379 1.2068762218 1.199001918 1.1632034305 
1.1449790284 1.0360727457 1.0172683269 1.0216777179 0.98441248766 0.94787462113 0.86597655966 0.80840483961 0.71385102771 
0.62605699702 0.58836078084 0.49717735684 0.54979845804 0.48662040921 0.43422076493 0.4144449473 0.35913476371 0.31353767694 
0.18910904734 0.53270850719 0.54668810142 0.57836007703 0.50947970323 0.61257507647 0.19404116578 0.10495858148 0.10517325917 
0.10937164083 0.14506903655 0.18094278078 0.22255046823 0.17424507464 0.1318676692 0.08221598284 0.057676556224 0.11425369715 
0.32729013526 0.47499233049 0.65179334581 0.64584333513 0.046868930744 0.30592125794 0.18511877188 0.1326437023 0.08104441946 
0.076265367969 0.073287824194 0.16842284616 0.54012748178 0.53597619509 0.66063882165 0.29929065739 0.65474643517 0.7250292377 
0.38264252818 0.024384049003 0.16508913034 0.36469088322 0.56442955497 0.31717857217 0.47437346187 0.34948423821 0.54598250551 
0.40683046984 0.39444649776 0.39247469475 0.36696844864 0.35624783408 0.24007013357 0 0.25499165718 1.3093481855 
0.7593560743 0.82036880318 0.93543069239 0.98034082826 1.1155195457 1.3554772268 1.6688929654 1.9189824592 1.8939923428 
1.8705989933 1.8490082397 1.9105110678 1.8880538681 1.8690750709 1.9321062657 1.9203937571 1.9151546014 1.984585846 
1.9793043019 1.893684903 1.8911764678 1.9426338525 1.9428142372 1.8647427234 1.8709720291 1.9170177179 1.9217080764 
1.9282138641 1.9559630064 1.8648145745 1.8740897373 1.7324124168 1.4205707084 1.1296957081 0.80998821238 0.66630264958 
0.5376757048 0.46121570784 0.58114931263 0.75116207074 1.0807912185 1.4227163827 1.8286573112 2.1898637334 2.2614657051 
2.3671020935 2.1293838682 2.2457372958 2.3881645419 2.5386524349 2.5237214848 2.3155445802 2.1330403214 1.5850645752 
1.5596791768 1.2959677013 0.90793836786 0.86001611229 0.6293322599 0.67210138943 0.6481931368 0.36186158194 1.2623714721 
1.0119664733 1.207469988 0.75328139713 0.8224344958 0.60551988571 0.52029469343 0.49280810425 0.45890190322 0.36952931131 
0.4671569989 0.37654811149 0.33537594646 0.2963169057 0.27496558227 0.18089212615 0.089139785527 0.045603488387 0.023255507564 
0.13357796048 0.14042382445 0.16214047235 0.20221051092 0.31010481296 0.21259981934 0.20240041392 0.25325797284 0.15813951359 
0.1939793986 0.23226551781 0.27689754499 0.32667904173 0.40537005993 0.41871382948 0.44142407117 0.47332848368 0.37697531917 
0.39712210547 0.51523710153 0.41986600003 0.36960490307 0.36309060368 0.39397637108 0.50451097517 0.69193333053 0.64169100586 
0.61749410812 0.53597619509 0.66063882165 0.57753888359 0.53597619509 0.63779899418 0.33745463844 0.31842946735 0.27483119153 
0.24321836872 0.25415571047 0.23038367217 0.23671578368 0.21040303633 0.21040303633 0.18553179136 0.22406889659 0.20947871574 
0.19597183948 0.13281807456 0.13281807456 0.13281807456 0.13281807456 0.16350794648 0.17144709927 0.20159169316 0.18671813742 
0.17291888091 0.10052184997 0.10052184997 0.10052184997 0.068110559011 0.28521116508 0.50280891013 0.50280891013 0.39356022438 
0.39372462377 0.50116542296 0.52602988152 0.49838119959 0.30225361152 0.28148156215 0.17327897746 0.17327897746 0.27676387733 
0.52700549552 0.52700549552 0.52700549552 0.94689809343 0.90672663304 0.644084347 0.25748161263 0.3311284759 0.35960894486 
0.63197640481 0.90402359884 0.62103346281 0.71287336082 1.1250771479 1.2888825205 0.6127654802 0.50762170682 0.50762170682 
0.50762170682 0.63227814279 0.64164213748 0.65167208201 0.14545776569 0.12435499455 0.2724631494 0.2153576997 0.6624392854 
0.67947702701 0.67276988041 0.56005687656 0.40257545621 0.2650310131 0.11773105592 0.40115924711 0.12538926913 0.64313348487 
0.82389224633 0.84098073393 0.7668987057 0.77317850211 0.76157765434 0.70460292575 0.66601573913 0.74329641866 0.6956262045 
0.47686553339 0.34497995755 0.29772941128 0.17141692025 0.20101623682 0.27377708178 0.31948188171 0.37741492565 0.27427714198 
0.34669288449 0.55450047712 0.64303093598 0.5664809582 0.6809492435 0.80695841168 0.94317730623 0.9176939026 0.99265195078 
0.99442311955 0.90593227047 0.90593227047 0.14114150652 0.14114150652 1.1710454325 0.75237787987 0.32144493045 0.32144493045 
1.0667512823 0.47412570361 0.46930495155 0.60916351304 0.85771746006 0.70040280419 0.67858637725 0.65788974223 0.67018756906 
0.9992082638 0.67858637725 0.65788974223 0.63824527241 0.83077128641 0.18741463324 0.28011644842 0.83848412249 0.81417316045 
0.79092893682 1.0285435086 1.0285435086 0.81718474467 0.70040280419 0.67858637725 0.76339794771 0.56205288206 0.88171044553 
0.93194216464 0.88627762621 0.88910656074 0.88483793853 0.88342134552 0.84329600419 0.83251570185 0.77519898199 0.71665496996 
0.59990727546 0.37434074903 0.30270214108 0.22919124506 0.097959060008 0.14023659806 0.19096564144 0.2756708618 0.19171446811 
0.13011467613 0.052033282558 0.085767473311 0.26517332178 0.44790702429 0.90962636451 0.59595144249 0.5255142461 0.41230729192 
0.76225689852 0.90962636451 0.90962636451 0.90962636451 0.91417928658 0.90303572649 0.89252740936 1.8313086256 0.51389515792 
0.041972938445 0.067884271887 0.061580723713 0.12305034875 0.15426097326 0.24488562107 0.25944655006 0.24045659607 0.22793773017 
0.22111187352 0.22113661194 0.22858245305 0.25538384379 0.29755075954 0.26967521041 0.27052356088 0.31952748221 0.39547070468 
0.38959921407 0.33319464044 0.60133221665 0.81517314783 0.95894031881 0.44582802585 0.7414219494 0.25624965257 0.30746227256 
0.43156114333 0.21018819128 0.27059294476 0.3318851918 0.26206767221 0.32036902782 0.39193209481 0.25539825891 0.32571432083 
0.42077891175 0.20531246933 0.28581336055 0.13344529459 0.47770571284 0.78566299589 0.77856283221 0.77083877685 0.77083877685 
0.81429408791 0.6196858967 1.3080978094 1.2265242596 0.33602508976 0.22557533465 0.7827964289 0.40572340865 0.62635414335 
0.99885463687 0.89756581485 0.86603757378 1.2259477899 1.2640945731 1.3457295504 1.2518753528 1.2103552996 1.1681278171 
1.1254252387 0.55370463869 0.87538029861 0.77859668092 1.2591560871 1.1651068116 1.3285160597 1.2753270866 1.1784425229 
1.1261540043 1.0064719064 0.83645096055 0.77083877685 0.51781501776 0.40246426648 0.40246426648 0.41166430198 0.3108231681 
0.58054094799 0.28536186213 0.18673343804 0.66008609401 0.49537788471 0.97943019335 0.95238891592 0.93627959228 0.93766282076 
0.82986689956 0.85489794963 1.5369437388 1.694030324 1.4163918295 1.3725458161 1.3267273413 1.6525287832 1.6483915561 
1.6627565126 1.7204319057 1.1228687821 1.1902472685 1.3900316542 1.384468612 0.27528584192 0.71794730705 1.5584190585 
1.4544978605 1.3680371269 1.2118407786 1.0310652172 1.241034907 0.83098761611 1.734279539 1.7265023885 1.7307369643 
1.7658880054 1.8172861168 1.2536123694 1.1121395982 1.1562870402 1.0337882255 0.82826871211 0.5969113482 1.4519190452 
1.848232772 1.3499234493 2.0340008603 1.9355801407 1.8880245178 1.296559718 1.2401412123 1.1808406826 1.3132224763 
1.5865056693 1.6211515066 1.6383624948 1.7226383026 1.9651371458 0.81440812974 0.94351533356 1.428893513 1.3940803518 
0.4932760401 0.8438469052 1.4325841224 1.428893513 1.3940803518 1.3596945655 1.1490661586 1.2477674517 1.1583352651 
1.0267381413 0.76204274142 1.8965713385 1.2117724423 1.1185809971 0.9194242458 0.76204274142 0.73278277791 1.470786387 
1.437793234 1.4050887092 1.3483934014 0.36134419908 0.70040280419 0.70040280419 0.54229512981 0.50158946303 0.45043638925 
0.47070222012 0.27528584192 0.51153278736 1.4813975502 0.67571929851 0.51138928689 0.72946993354 0.62426129068 1.4868132241 
1.4451894278 1.4039983766 1.3633705208 1.2966334891 0.86699156716 1.4668480578 1.4640562966 0.49744787766 0.37575919797 
0.56580709519 0.56441755447 0.55148407207 0.72744147305 0.27528584192 0.095481270944 1.4067444072 1.3586461985 0.70040280419 
0.40687355994 0.85458563558 0.093462464639 1.2924639721 1.5031685635 1.4695471565 0.092682662762 0.72245733814 0.74315593595 
0.68070918087 0.70607378485 0.43977269521 0.25499165718 0.68867798221 0.69278832315 0.65999185493 0.44933505076 1.5707963268 
0.67840460601 0 0.47412570361 0.45630526018 0.43969105105 0.56205288206 0.33187393998 0.80464690357 1.3854177893 
1.0794830862 0.9511104301 0.84253366368 0.53595246777 0.32833679898 1.0724714311 0.99423293747 1.0583347115 1.034409257 
0.78893312807 0.14114150652 0.32486172146 0.9511104301 0.70998484727 0.77086875882 1.419649359 1.6239064241 1.1946323224 
1.1644900468 1.2931176179 1.3551767433 0.14114150652 0.94341397049 0.69968544581 0.67787509472 0.65718547481 0.59704938101 
0.60976346308 0.81517314783 0.64850461077 0.70491483869 0.66755445007 1.1579438823 1.7971609223 1.7796491746 1.5319994964 
1.2406515683 1.3562545688 1.4719888534 1.4359304568 0.88207240233 1.0064301106 0.70491483869 0.77142575297 0.69132506267 
0.69968544581 0.50521754388 0.28934399062 0.35112053397 0.49512959211 0.46271621178 0.37790164799 0.40572340865 0.63129834004 
0.84590175002 0.50890535088 0.454543178 0.68710965732 0.35780741696 0.45190544009 0.33785768406 0.7426625515 0.79788133126 
0.63161249442 0.61709089187 1.448827942 0.41159470831 0.16860811677 1.0084259073 1.1843944031 0.61480850615 0.75719868472 
0.94009379023 1.1746631631 2.1975507637 0.45925900789 0.65247393641 0.63870179761 0.88599601194 1.5707963268 0.77142575297 
0.63754877913 0.23526650232 0.75388919957 0.76943342261 0.66520501208 0.70414585909 1.384379466 0.68611786938 1.1828943516 
1.1509418021 0.97257479732 1.1509418021 1.5672442447 1.5283610188 0.83098761611 1.6166768432 0.90536531784 2.0835794277 
0.92480512617 1.0048568378 0.45796337483 0.65926974191 0.70040280419 0.67858637725 0.54797867293 1.4961686842 1.5183007977 
1.4051851352 0.68611786938 0.97257479732 1.1509418021 0.72209784053 0.79463330428 0.8671631291 1.2293759585 1.3554410492 
0.8720640879 0.88772879101 1.0285435086 1.5360355709 1.9138371593 0.96647862953 0.97010104202 1.2741592277 1.2090968179 
0.98750925524 0.454543178 0.35985297953 2.197539228 0.68286405989 1.2368310885 0.82894051154 2.1162981616 1.1868365187 
0.8448047843 1.1153491944 0.97010104202 1.4994859386 1.5069247241 0.86293305199 0.93067208225 0.73446054763 0.56631877711 
0.94131553134 0.51250104841 0.24852463788 0.13430173569 1.1883513015 2.1977201221 2.075476721 2.0245838047 1.8356979663 
1.4611734637 1.4994859386 1.9659377226 0.8934292635 1.0513658711 1.1396729462 1.9384497501 1.4520183955 1.8824365665 
1.4469878038 1.0908532872 0.32149051017 0.30986011173 0.30548509732 0.31842652104 0.24003869811 0.2389884022 0.26722911786 
0.2692048954 0.2692048954 1.0967531131 0.20754291018 1.0469794371 0.99655196427 0.20288925949 0.17251114741 0.94874701963 
0.22381917359 0.86402818102 0.24047822126 0.81280803856 1.4531495065 1.7515184939 1.7392402146 1.8247949966 1.8176559291 
1.8132027661 1.913094493 1.9164184271 1.9245677454 1.9212506402 2.0083493158 0.76174582586 0.71106415447 0.66022942321 
2.07882252 1.9416967319 1.9603062347 0.60824650169 0.55482502713 1.7876329196 1.6776715259 0.68327527956 1.6889088909 
0.6361109255 1.4295516701 1.4257820086 1.329122207 0.58775017355 1.1608781593 1.0116862802 0.53775563667 0.88958926606 
0.42844716599 0.85112258989 0.7604551262 0.35460564454 0.28741821014 0.21272357967 0.70568405155 0.80190237524 0.75843515352 
0.72780454768 0.60115638514 0.54508940422 0.58420757698 0.67454484158 0.21050482347 0.15256863848 0.1918829999 0.21050482347 
0.21050482347 0.24447492604 0.27589487513 0.28698082556 0.37111023927 0.37111023927 0.37111023927 0.37995964897 0.35248509608 
0.43915422158 0.42992565359 0.53818799834 0.5619953293 0.55616025303 0.20016960836 0.43078771281 0.18316925004 0.37544849518 
0.32441741891 0.27513707917 0.35253102442 0.24757093472 0.52660523832 0.38998317527 0.15856772468 0.38086109834 0.33840833151 
0.37779795138 0.41316571338 0.25354517646 0.10432135025 0.03777247481 0.65453670238 0.92886249118 0.24516411708 0.29039411171 
0.34171322692 0.39998898586 0.11580533725 0.24788772693 0.24788772693 0.25000346881 0.25000346881 0.25374849882 0.076865478371 
0.22848696877 0.18322220447 0.15693479962 0.2167436569 0.34512030221 0.47253877397 0.70716022315 0.46615955411 0.54116062516 
0.62579651512 0.65099076038 0.64124524636 0.29710716729 0.4292264167 0.63359468914 0.78043466028 0.53308701766 0.77573271711 
0.73960833288 0.56885056033 0.3898102506 0.50763309787 0.73274882353 0.4293409135 0.6279015829 0.36859899889 0.5632080079 
0.25112785379 0.34948423821 0.18684381714 0.39707761591 0.081440253593 0.24412060632 0.072500127541 0.17148012257 0.18226963979 
0.29060154892 0.21656987517 0.17841927994 0.2624134258 0.15042625181 1.1320679678 0.3531303434 1.1235462311 0.055422613232 
1.1197090461 0.18858033414 1.1161903725 1.090229335 0.22603373399 0.23761345247 0.19163067518 0.18103433926 0.21567331772 
0.1539208126 1.0537910722 0.13914011902 0.12864858675 0.9917740808 0.32294014172 0.44779268325 0.25880564241 0.10917183442 
0.19444011747 0.12604300332 0.090591935303 0.21344965794 0.090591935303 0.28838040005 0.090591935303 1.1995480654 0.19616818093 
0.2251391195 0.15296991555 0.26329845365 0.28733855384 0.11168216783 0.23882066358 1.2265242596 0.2017160026 0.15505654228 
1.227512716 0.10890097325 0.16221116254 0.16221116254 0.13896303165 0.15383783452 0.2083742533 0.093133097096 0.17162967341 
0.13662256902 0.1597809151 1.2253840578 0.11545062273 0.15764343006 0.27635367476 0.27651608482 0.11168216783 0.11168216783 
0.12638861689 1.2253840578 0.25092136909 0.33978652981 0.13527633192 0.14480749938 0.14480749938 0.12166036488 0.13049959539 
0.11755440689 0.099355463558 0.099355463558 0.099355463558 0.078508162164 0.25571181466 0.24075049098 0.057435341872 0.17396446286 
0.20290563828 0.12967116353 0.088352107185 0.11015812265 0.13286351418 0.079280577276 0.16164350004 0.1094327283 0.15217202363 
0.052896560373 0.21645076719 0.15615398149 0.15615398149 0.13418873322 0.097044096901 0.06838526669 0.085174925961 0.085174925961 
0.085174925961 0.060300643582 0.060300643582 0.02699344294 0.02699344294 0.02699344294 0.17061961929 0.060300643582 0.038165226606 
0.11052671408 0.2382227218 0.060300643582 0.21146365257 0.1848348924 0.1991341778 0.24322774872 0.37221863716 0.053947605782 
0.188136339 0.31765945024 0.16118217616 0.26371184446 0.10719529028 0.20976423868 0.15612882983 0.13418873322 2.1073424255e-08 
0.15612882983 0.099804574056 0.13299664049 0.29517908586 0.13681347087 0.037788137762 0.13681347087 0.15840012132 0.080473764952 
0.097333725857 0.1243408993 0.13418873322 0.13418873322 0.11297658647 0.053463555066 0.14006635212 0.14438762946 0.14438762946 
0.078427547668 0.079533085419 0.25348926207 0.12016592259 0.059866843129 0.14438762946 0.11086736701 0.11086736701 0.085174925961 
0.085174925961 0.24988171488 0.076219594234 0.076219594234 0.038165226606 0.038165226606 0.02699344294 0.093718826816 0.13686081664 
0.038165226606 0.076847555213 0.13477892088 0.094391209329 0 0 0 0.18864862103 0.038165226606 
0.1195838734 0.12018942286 0.091763259763 0.1102497728 0.089503207303 0.15223964833 0.14324501784 0.1848348924 0.25958492406 
0.074594457124 0.25069766495 0.037509590379 0.026673658078 0.059505271199 0.059866843129 0.050504457024 0.014875826113 0.076990445716 
0.039769729521 0.037917500604 0.11973368626 0.081053717099 0.096600871062 0.19054454292 0.1085210291 0.08120322521 0.11405416391 
0.097044096901 0.076219594234 0.076219594234 0.060300643582 0.068312304488 0.11052671408 0.060300643582 0.053947605782 0.053947605782 
0.02699344294 0.34616766755 0.060300643582 0.060300643582 0.060300643582 0.15458918817 0.24751214295 0.30810994611 0.14344856304 