# vtk DataFile Version 5.1
vtk output
ASCII
DATASET POLYDATA
POINTS 4194 double
6.4800002575 36.585001454 65.5 6.4800002575 36.720001459 65.5 6.4800002575 36.855001464 65 
6.4800002575 36.855001464 65.5 6.4800002575 36.99000147 65 6.4800002575 36.99000147 65.5 
6.6150002629 37.125001475 65 6.6150002629 37.125001475 65.5 6.6150002629 37.260001481 65 
6.6150002629 37.260001481 65.5 6.6150002629 37.395001486 65 6.6150002629 37.395001486 65.5 
6.7500002682 37.395001486 67.5 6.7500002682 37.530001491 65.5 6.7500002682 37.665001497 65.5 
6.7500002682 37.800001502 65 6.7500002682 37.935001507 65 6.7500002682 38.070001513 65 
6.8850002736 37.260001481 70.5 6.8850002736 37.395001486 67.5 6.8850002736 37.395001486 68 
6.8850002736 37.530001491 66 6.8850002736 37.530001491 66.5 6.8850002736 37.530001491 67 
6.8850002736 37.530001491 67.5 6.8850002736 37.665001497 65.5 6.8850002736 37.665001497 67 
6.8850002736 37.800001502 65 6.8850002736 37.935001507 65 6.8850002736 38.070001513 65 
6.8850002736 38.205001518 65 6.8850002736 38.340001523 64.5 6.8850002736 38.475001529 64.5 
6.8850002736 38.610001534 64 6.8850002736 38.74500154 64 7.0200002789 37.260001481 70.5 
7.0200002789 37.395001486 67 7.0200002789 37.395001486 67.5 7.0200002789 37.395001486 68 
7.0200002789 37.395001486 68.5 7.0200002789 37.395001486 69 7.0200002789 37.395001486 69.5 
7.0200002789 37.395001486 70 7.0200002789 37.395001486 73 7.0200002789 37.530001491 66 
7.0200002789 37.530001491 70 7.0200002789 37.530001491 73 7.0200002789 37.665001497 73 
7.0200002789 37.800001502 73 7.0200002789 37.935001507 73 7.0200002789 38.070001513 73 
7.0200002789 38.205001518 73 7.0200002789 38.340001523 73 7.0200002789 38.475001529 73 
7.0200002789 38.610001534 64 7.0200002789 38.610001534 73 7.0200002789 38.74500154 73 
7.0200002789 38.880001545 63.5 7.0200002789 38.880001545 73 7.0200002789 39.01500155 73 
7.0200002789 39.150001556 73 7.0200002789 39.285001561 73 7.0200002789 39.420001566 73 
7.0200002789 39.690001577 63 7.1550002843 30.240001202 77 7.1550002843 30.375001207 77 
7.1550002843 30.510001212 77 7.1550002843 30.645001218 77 7.1550002843 30.780001223 77 
7.1550002843 30.915001228 77.5 7.1550002843 31.050001234 77.5 7.1550002843 31.185001239 77.5 
7.1550002843 31.320001245 78 7.1550002843 31.45500125 78 7.1550002843 34.425001368 78 
7.1550002843 34.560001373 78 7.1550002843 34.695001379 78 7.1550002843 34.830001384 78 
7.1550002843 35.505001411 77 7.1550002843 35.640001416 76.5 7.1550002843 35.775001422 76 
7.1550002843 35.910001427 76 7.1550002843 36.045001432 75.5 7.1550002843 36.045001432 76 
7.1550002843 36.180001438 75 7.1550002843 36.180001438 76 7.1550002843 36.315001443 75 
7.1550002843 36.450001448 74.5 7.1550002843 36.585001454 74 7.1550002843 36.720001459 73.5 
7.1550002843 36.855001464 73 7.1550002843 36.99000147 72 7.1550002843 36.99000147 72.5 
7.1550002843 36.99000147 73 7.1550002843 37.125001475 71 7.1550002843 37.125001475 71.5 
7.1550002843 37.125001475 73 7.1550002843 37.260001481 70 7.1550002843 37.260001481 70.5 
7.1550002843 37.260001481 73 7.1550002843 37.530001491 66 7.1550002843 38.74500154 63.5 
7.1550002843 38.880001545 63.5 7.1550002843 39.01500155 63 7.1550002843 39.150001556 63 
7.1550002843 39.285001561 63 7.1550002843 39.420001566 63 7.1550002843 39.555001572 62.5 
7.1550002843 39.555001572 63 7.1550002843 39.555001572 73 7.1550002843 39.690001577 62.5 
7.1550002843 39.690001577 73 7.1550002843 39.825001583 62.5 7.1550002843 39.960001588 62 
7.1550002843 40.095001593 62 7.1550002843 40.230001599 62 7.2900002897 28.755001143 75.5 
7.2900002897 28.890001148 75.5 7.2900002897 29.025001153 75.5 7.2900002897 29.160001159 75.5 
7.2900002897 29.295001164 75.5 7.2900002897 29.430001169 75.5 7.2900002897 29.565001175 76 
7.2900002897 29.70000118 76 7.2900002897 29.835001186 76.5 7.2900002897 29.970001191 77 
7.2900002897 30.105001196 77 7.2900002897 31.590001255 78 7.2900002897 31.725001261 78 
7.2900002897 31.860001266 78 7.2900002897 31.995001271 78 7.2900002897 32.130001277 78.5 
7.2900002897 32.265001282 78.5 7.2900002897 32.400001287 78.5 7.2900002897 32.535001293 78.5 
7.2900002897 32.535001293 85 7.2900002897 32.670001298 78.5 7.2900002897 32.670001298 84.5 
7.2900002897 32.805001304 78.5 7.2900002897 32.805001304 84.5 7.2900002897 32.940001309 78.5 
7.2900002897 32.940001309 84 7.2900002897 33.075001314 78.5 7.2900002897 33.075001314 84 
7.2900002897 33.21000132 78.5 7.2900002897 33.21000132 83.5 7.2900002897 33.345001325 79 
7.2900002897 33.345001325 83 7.2900002897 33.48000133 79 7.2900002897 33.615001336 79 
7.2900002897 33.750001341 79 7.2900002897 33.885001346 79.5 7.2900002897 34.020001352 79 
7.2900002897 34.020001352 79.5 7.2900002897 34.155001357 78.5 7.2900002897 34.290001363 78.5 
7.2900002897 34.965001389 77.5 7.2900002897 35.100001395 77.5 7.2900002897 35.2350014 77 
7.2900002897 35.370001405 77 7.2900002897 38.880001545 63 7.2900002897 39.01500155 63 
7.2900002897 39.825001583 72.5 7.2900002897 39.960001588 72.5 7.2900002897 40.095001593 72.5 
7.2900002897 40.230001599 72.5 7.2900002897 40.365001604 61.5 7.2900002897 40.365001604 72.5 
7.2900002897 40.500001609 61.5 7.2900002897 40.500001609 72.5 7.2900002897 40.635001615 61.5 
7.2900002897 40.635001615 72.5 7.2900002897 40.77000162 61.5 7.2900002897 40.77000162 72.5 
7.2900002897 40.905001625 72.5 7.2900002897 41.040001631 72.5 7.2900002897 41.175001636 72.5 
7.2900002897 41.310001642 72.5 7.2900002897 41.445001647 72.5 7.2900002897 41.580001652 72.5 
7.2900002897 41.715001658 72.5 7.425000295 28.080001116 75.5 7.425000295 28.215001121 75.5 
7.425000295 28.350001127 75.5 7.425000295 28.485001132 75.5 7.425000295 28.620001137 75.5 
7.425000295 31.860001266 87 7.425000295 31.995001271 86.5 7.425000295 32.130001277 86 
7.425000295 32.265001282 86 7.425000295 32.400001287 85.5 7.425000295 32.535001293 85 
7.425000295 32.670001298 84.5 7.425000295 32.805001304 84.5 7.425000295 32.940001309 84 
7.425000295 33.075001314 83.5 7.425000295 33.48000133 82 7.425000295 33.48000133 82.5 
7.425000295 33.615001336 81.5 7.425000295 33.615001336 82 7.425000295 33.750001341 80 
7.425000295 33.750001341 80.5 7.425000295 33.750001341 81 7.425000295 33.750001341 81.5 
7.425000295 33.885001346 80 7.425000295 38.340001523 62.5 7.425000295 38.475001529 62.5 
7.425000295 38.610001534 62.5 7.425000295 38.74500154 62.5 7.425000295 40.635001615 61.5 
7.425000295 40.77000162 61.5 7.425000295 40.905001625 61 7.425000295 41.040001631 61 
7.425000295 41.175001636 61 7.425000295 41.850001663 72 7.425000295 41.985001668 72 
7.5600003004 27.540001094 75.5 7.5600003004 27.6750011 75.5 7.5600003004 27.810001105 75.5 
7.5600003004 27.94500111 75.5 7.5600003004 31.050001234 89.5 7.5600003004 31.185001239 89.5 
7.5600003004 31.320001245 89 7.5600003004 31.45500125 88.5 7.5600003004 31.590001255 88 
7.5600003004 31.725001261 87.5 7.5600003004 37.800001502 61.5 7.5600003004 37.935001507 62 
7.5600003004 38.070001513 62 7.5600003004 38.205001518 62 7.5600003004 41.310001642 60.5 
7.5600003004 41.445001647 60.5 7.5600003004 41.580001652 60 7.5600003004 41.580001652 60.5 
7.5600003004 41.715001658 60 7.5600003004 42.120001674 72 7.6950003058 27.135001078 75.5 
7.6950003058 27.270001084 75.5 7.6950003058 27.405001089 75.5 7.6950003058 30.105001196 92.5 
7.6950003058 30.240001202 92.5 7.6950003058 30.375001207 92 7.6950003058 30.510001212 91.5 
7.6950003058 30.645001218 91 7.6950003058 30.780001223 90.5 7.6950003058 30.915001228 90 
7.6950003058 36.315001443 59 7.6950003058 36.450001448 59 7.6950003058 36.585001454 59 
7.6950003058 36.720001459 59.5 7.6950003058 36.855001464 60 7.6950003058 36.99000147 60.5 
7.6950003058 37.125001475 60.5 7.6950003058 37.260001481 60.5 7.6950003058 37.395001486 60.5 
7.6950003058 37.530001491 60.5 7.6950003058 37.665001497 61 7.6950003058 41.715001658 59.5 
7.6950003058 41.850001663 59.5 7.6950003058 41.985001668 59 7.6950003058 42.255001679 72 
7.6950003058 42.390001684 72 7.8300003111 26.865001068 75.5 7.8300003111 27.000001073 75.5 
7.8300003111 29.565001175 94 7.8300003111 29.70000118 93.5 7.8300003111 29.835001186 93 
7.8300003111 29.970001191 93 7.8300003111 30.105001196 53 7.8300003111 30.240001202 53 
7.8300003111 30.375001207 53 7.8300003111 42.120001674 58.5 7.8300003111 42.255001679 57.5 
7.8300003111 42.255001679 58 7.8300003111 42.255001679 58.5 7.8300003111 42.390001684 57.5 
7.8300003111 42.390001684 58.5 7.8300003111 42.52500169 57 7.9650003165 27.810001105 54 
7.9650003165 27.94500111 54 7.9650003165 28.080001116 54 7.9650003165 28.215001121 54 
7.9650003165 28.350001127 53.5 7.9650003165 28.485001132 53.5 7.9650003165 28.620001137 53.5 
7.9650003165 28.755001143 53 7.9650003165 28.755001143 53.5 7.9650003165 28.890001148 53 
7.9650003165 28.890001148 53.5 7.9650003165 28.890001148 95.5 7.9650003165 29.025001153 53 
7.9650003165 29.025001153 53.5 7.9650003165 29.025001153 95 7.9650003165 29.160001159 53 
7.9650003165 29.160001159 53.5 7.9650003165 29.160001159 95 7.9650003165 29.295001164 53 
7.9650003165 29.295001164 53.5 7.9650003165 29.295001164 94.5 7.9650003165 29.430001169 53 
7.9650003165 29.430001169 53.5 7.9650003165 29.430001169 94 7.9650003165 29.565001175 53 
7.9650003165 29.565001175 53.5 7.9650003165 29.70000118 53 7.9650003165 29.70000118 53.5 
7.9650003165 29.835001186 53 7.9650003165 29.835001186 53.5 7.9650003165 29.970001191 53 
7.9650003165 29.970001191 53.5 7.9650003165 42.390001684 56 7.9650003165 42.390001684 56.5 
7.9650003165 42.390001684 57 8.1000003219 27.405001089 54 8.1000003219 27.540001094 54 
8.1000003219 27.6750011 54 8.1000003219 28.080001116 98 8.1000003219 28.215001121 97.5 
8.1000003219 28.350001127 97 8.1000003219 28.485001132 96.5 8.1000003219 28.620001137 96 
8.1000003219 28.755001143 53 8.1000003219 28.755001143 96 8.1000003219 28.890001148 53 
[...]
CELL_DATA 4193
SCALARS angle%0A[rad] double
LOOKUP_TABLE default
0 1.3070844823 0.44356984239 0.40867540483 0.32835587013 0.23767267453 1.8545079202 1.7648119616 1.700306776 
1.6392131593 1.5875668954 1.529902807 1.6222700152 1.5557568258 1.5222053082 1.5623140621 1.6467698828 1.6471556107 
1.6128369341 1.6300585464 1.6123127907 1.616252752 1.4748796235 1.4585287773 1.4465684942 1.4751438153 1.4770963173 
1.5160544997 1.6059664205 1.5371195021 1.5559051407 1.5313848503 1.5843435934 1.6218481172 1.6444438385 1.4059823837 
1.353336746 1.3164231285 1.2616073989 1.1977291589 0.89287998264 0.8398817053 0.74605380261 0.44538598975 0.40519599702 
0.42438777451 0.57309670453 0.53234893633 0.50623238744 0.49894208937 0.21726524957 0.28945061026 0.33409397334 0.2546302294 
0.3301231042 0.30038513726 0.27075372154 0.2030436972 0.16991728392 0.19489698521 0.13831438501 0.052241880754 0.26703046127 
0.4652831045 0.57028009427 0.25619969418 0.19093975716 0.17676975774 0.21939971866 0.75804769235 0.69901259862 0.92358209177 
0.15184145486 0.33981010845 0.28316710936 0.15680888496 0.10838181221 0.066687941702 0.047325441921 0.17532958838 0.2593093115 
0.43343293777 0.53822581613 0.53822581613 0.53822581613 0.70256158672 1.0416053085 0.48676450561 0.40718772269 0.50199551057 
0.40718772269 0.41541173188 0.51289626139 0.47913845641 0.51075937314 0.48144926951 0.44988258968 0.43007292787 0.41416280684 
0.39933366452 0.43143885436 0.43143885436 0.43143885436 0.40726808408 0.3956520219 0.37260740316 0.43350393159 0.2886071287 
0.27427858887 0.26088597991 0.23769214426 0.22306282932 0.19438695167 0.16928681363 0.14323458944 0.15601756411 0.14709061256 
0.13387947427 0.17092490766 0.16155424867 0.14277961775 0.17830081138 0.17014273098 0.25435090781 0.24091638559 0.24097158389 
0.26064609575 0.25966580179 0.25860698634 0.25746398481 0.25623275609 0.25491289813 0.2535114329 0.25205000219 0.25057884738 
0.24100647629 0.24215343004 0.23779726789 0.25724657212 0.16873542791 0.16873542791 0.16873542791 0.16371448717 0.15898127064 
0.42999228972 0.38927147201 0.40479386246 0.16396807173 0.1940574057 0.20852491322 0.22404058931 0.25889445711 0.27630337102 
0.29510178465 0.32170301361 0.328158293 0.35241340894 0.39355110135 0.4216720259 0.45223960165 0.18816817102 0.21554643338 
0.24760844395 0.28479702435 0.32768526774 0.3243146758 0.33829647433 0.2161845072 0.24543219179 0.13636784846 0.25445070788 
0.40957141934 0.63475382682 0.84405292145 0.23811073973 0.41124549946 0.43437927892 0.25626989505 0.27846546274 0.30182561481 
0.38670264697 0.40888221664 0.43215311871 0.37941258571 0.48207258659 0.57168096418 0.48273621026 0.5494520934 0.62194165588 
0.73667564614 0.76092743967 0.66241311938 0.70529942978 0.65136260359 0.76835870969 0.79001757847 0.78993318044 0.73631051567 
0.76914969675 0.73401702369 0.63508439717 0.58864024765 0.53730567931 0.47553298927 0.41308445663 0.37482396143 0.31609726503 
0.30681980387 0.23130671456 0.25941505526 0.2353598522 0.19940533791 0.17602176056 0.16484864622 0.11140868468 0.093243152981 
0.065936125841 0.062247109347 0.05887185685 0.12546225257 0.19000090643 0.13163231804 0.19000090643 0.17356266313 0.077420049173 
0.16161959891 0.1860238671 0.19511150397 0.21933274029 0.1860238671 0.2318215812 0.16130702396 0.10285859148 0.044433716809 
1.4901161194e-08 0.069704030075 0.037244279831 0.037244279831 0.10175591531 0.037833655932 0.028084942811 0.037833655932 0 
0 0.058618995594 0.082312545837 0.12274176376 0.11302897187 0.088893842941 0.083135748947 0.032578190224 0.026770111195 
0.056199465169 0.056060968387 0.050170025917 0.042543034352 0 0.052860856781 0.076839283823 0.10910168486 0.21272169042 
0.071371263146 0.060597825892 0.13612954374 0.14922529841 0.11583475841 0.13956916176 0.16478116491 0.20313659572 0.32177303336 
0.21136686002 0.14065462709 0.18455883903 0.2887022443 0.18537853753 0.2823382736 0.31350556266 0.3772231655 0.42741860979 
0.36493205144 0.42671851587 0.35629577351 0.28791962552 0.21150389684 0.24768369515 0.15775184959 0.26112681147 0.15250614505 
0.068050113779 0.081230825208 1.1030765324 0.19891306768 0.18418769672 0.17219106498 0.25880564241 0.23328410007 0.17769475628 
0.13391616125 0.23927346182 0.25731535441 0.15451351108 0.2887022443 0.025332180834 0.18360980992 0.13184644625 0.18864862103 
0.16278140806 0.13681347087 0.11086736701 0.063126523919 0.1186689757 0.097044096901 0.22454112 0.99134869412 1.5707963268 
1.5368346509 1.4987301557 1.4816741189 1.6003309041 1.5796194833 1.5497366814 1.5129958456 1.5115296332 1.4820259643 
1.4526763921 0.41768712684 0.47943979669 1.5170244902 0.10624574709 0.45898731191 0.60470982663 1.4635618205 0.48412297989 
0.60209478625 0.8269904168 0.69138266918 0.52267367482 0.31271714431 1.437040431 1.3840661866 0.3721701634 0.47680158265 
0.38987665609 0.4811820578 1.5445658531 0.34514201166 0.16501408116 0.5340223193 1.4633686237 1.2253840578 1.1990924763 
1.1296095506 0.1609657633 0.2900251327 1.1697933741 1.2505046513 0.19047506877 0.048858651388 1.0766127433 1.0917818005 
1.0660356838 1.3581397205 0.26832143371 0.16110826611 0.12960238805 0.28105234199 1.0508825111 1.0224768325 0.91870511878 
0.91539246592 0.88207203688 0.84914345741 0.82363188311 0.7704090728 0.75055285491 0.7196356231 0.69584913046 0.61846871486 
0.61205281315 0.58239361007 0.55375581879 0.52615203183 0.44128200782 0.41734676292 0.21834344515 0.99346004109 0.20006979301 
0.13375055591 1.1059405443 1.1872923218 1.1604613677 1.1166648207 1.0658322765 1.0058502644 0.87331939017 0.82385267425 
0.77349230135 0.69378085432 0.57143852339 0.5175940872 0.46327909737 0.36637514157 0.46066249794 0.42943091751 0.40344575184 
0.35316421135 0.27707682834 0.25261265839 0.36997676108 0.34693075146 0.25589933099 0.33335560269 0.33411709792 0.31824726633 
0.29734725079 0.081843748783 0.081843748783 1.6245681634 0.28552037436 0.25499165718 0.13271061375 0.22139495782 0.23604282935 
0.18091796517 0.17687100818 0.26992731467 0.53360805424 0.52854664823 0.85712269495 0.83593897158 0.81640892255 0.79862893002 
0.71878360794 1.5977016937 0.28714806811 0.39522967807 0.26370335375 0.095727172535 0.19455776509 0.9470387078 0.39004182521 
0.32922455195 0.46500280778 0.47013635932 0.34035942004 0.72433865734 0.71846454637 0.70219418516 0.69582658756 0.70166242787 
0.052747370008 0.76308118466 0.23294204945 1.0107245823 0.96941472169 0.33543272981 0.29461397013 0.69152338696 0.64475872512 
0.55285483095 0.56553347849 0.023227077527 0.077093498771 0.090100029767 0.23060379311 0.25396819695 0.2998499165 0.33307324127 
0.39212493019 0.46392339225 0.20642643511 0.24901716536 0.35038672999 0.45052450994 0.38464836918 0.4199347398 0.72538863064 
0.20673083413 0.28701515134 0.36145817234 0.49141976021 0.68593258487 0.41541173188 0.073092185459 0.24068905826 0.23404137688 
0.20983942716 0.20132306235 0.19190862349 0.15538122656 0.14011910657 0.083686072709 0.063734934829 0.15921498776 0.20766499584 
0.17781045882 0.16190408873 0.12362193519 0.20586388105 0.19762281326 0.35346990679 0.55305675602 0.6687537583 0.78095752741 
0.34351015631 0.28123356864 0.37529895993 0.38042683724 0.57112290827 0.59524546082 0.29942162202 0.31069813846 0.35631023561 
0.49432479303 0.79807197111 0.2680464845 0.30647338448 0.43763644715 0.44089683158 0.24427710554 0.26471556299 0.27560184157 
0.025293887496 0.12382970735 0.17228691965 0.28936473207 0.31639757125 0.28936473207 0.32481571044 0.32481571044 0.25608426694 
0.27565187583 0.19141488019 0.21545693978 0.17442907237 0.1998021649 0.086676664924 0.17097201288 0.11090585788 0.16360390766 
0.22493236636 0.32756124392 0.19151451623 0.23852945358 0.21882383627 0.24876342536 0.27974267048 0.31313912052 0.42119445481 
0.38436012631 0.45331637018 0.43484458731 0.45925436185 0.27109398942 0.41140409607 0.35447415235 0.30651794859 0.2546857542 
0.22912363736 0.083965336292 0.25348926207 0.25552326117 0.17671411162 0.14397149255 0.18000885301 0.16731457699 0.091706773621 
0.025132230511 0.051251744847 0.10918586569 0.15683888824 0.16124081242 0.28663543008 0.17294832892 0.23639398627 0.33654753318 
0.30504384228 0.27113645654 0.142202745 0.093796797339 0.15615398149 0.13418873322 0.097044096901 0.097044096901 0.19560893438 
0.02699344294 0.1107449372 0.13981652252 0.088433295482 0.15048339443 0.038165226606 0.088433295482 0.076219594234 0.076219594234 
0.13477892088 0.1186205744 0.12391310857 0.13071382724 0.12225437941 0.13477892088 0.11583685503 0.1469241858 0.17061961929 
0.060300643582 0.060300643582 0.31707863884 0.24926434728 0.15048339443 0.32658660225 0.076219594234 0.076219594234 0.076219594234 
0.076219594234 0.11405416391 0.096600871062 0.13418873322 0.097044096901 0.13280214949 0.097044096901 0.060300643582 0.13829282668 
0.23287011971 0.19054454292 0.056517905811 0.059866843129 0.12016592259 0.33474934859 0.53208145369 1.5438909599 0.22454112 
0.096600871062 0.13418873322 0.13418873322 0.23051588822 0.13418873322 0.13418873322 0.39875093384 0.11086736701 0.085174925961 
0.038165226606 0.10719529028 0.060300643582 0.21146365257 0.18137112612 0.2153603753 0.060300643582 0.060300643582 0.2382227218 
1.412391202 1.3773936477 1.2309669865 1.1758871617 1.1426378373 1.0842052892 1.0530709886 1.0210941839 0.98933795002 
0.9168733433 0.88691156482 0.82163883955 0.80480194864 0.76693745642 0.73772362918 0.70958910846 0.60499729098 0.56976584313 
0.53522275704 0.50126281118 0.39814576506 0.36482881538 0.33203725598 0.2364243706 0.21002207498 0.18531783759 0.1630218269 
0.19033731458 0.19509460589 0.20547987265 0.22141962096 0.34639496061 0.36439681581 0.043756142677 0.092956991591 0.082212385818 
0.11372670331 0.17176530727 0.19554772303 0.24261958958 0.33575166576 0.42088031138 0.52017415797 0.66780786628 0.25230779825 
0.25230779825 0.21978179132 0.38998317527 0.38998317527 0.38998317527 0.38998317527 0.38998317527 0.38998317527 0.38998317527 
0.38608884825 0.39929679009 0.43042280972 0.41230729192 0.41230729192 0.060597825892 0.099519397152 0.055862268729 0.055862268729 
0.83784128747 0.86945629379 0.8418090969 0.78351136483 0.72337884233 0.73594052529 0.6715416597 0.60578615647 0.57876620928 
0.49760601742 0.51647219179 0.40677628803 0.32740809222 0.25370254144 0.19920455821 0.17356452348 0.24324777933 1.0521004089 
0.9917740808 0.40841591292 0.25785195602 0.36100210042 0.33855409842 0.31732006424 0.29753389882 0.20807360713 0.20230641117 
0.20215897811 0.20888514128 0.23882165197 0.27417026902 0.31687729002 0.36832013597 0.49690209974 0.57012185183 0.66000741774 
0.51326889873 0.43227000543 0.46450707412 0.48263208724 0.54004075406 0.25300225832 0.21487699451 1.055940512 0.40562997121 
0.28952858238 0.58687398436 0.52041489038 0.52462663325 0.25230779825 0.25230779825 0.25230779825 0.25230779825 0.25230779825 
0.25230779825 0.25230779825 0.25230779825 0.25230779825 0.25230779825 0.46780777117 0.49919544689 0.41120133213 0.29362407846 
0.23992068612 0.23703450313 0.24751214295 0.26097359968 0.99875664775 0.38787115654 0.17886028564 0.35017589177 0.053947605782 
0.27321480442 0.24267116418 0.28853223462 0.15156375429 0.15667614006 0.19548252612 0.18515563786 0.22286729794 0.20783176403 
0.1154776854 0.10662321034 0.1754453996 0.13418873322 0.097044096901 0.22454112 0.22454112 0.28853223462 0.19966378087 
0.078427547668 0.1730048407 0.23860816111 0.1224470677 0.21645076719 0.18000885301 0.14437897231 0.14070238601 0.13350784495 
0.29572834349 1.3607219015 0.48782343292 0.20193519873 0.079105129493 0.061753146392 1.2602882364 0.12577996941 0.15451384592 
0.16703595621 0.079502868471 0.079502868471 0.0815043032 0.11430209793 0.085426040799 0.024559483078 0.024559483078 0.033741690819 
0.34423871463 0.23043217411 0.089343933636 0.13781305258 0.26290813074 0.2084117689 0.25643699163 1.2923160311 0.088515001239 
0.11207607434 0.07923185508 0.1703466399 0.26467224166 0.14535166892 0.14535166892 0.12609795513 0.15513079586 0.16875509482 
0.15855701179 0.18469877791 0.16767906242 0.19106056463 0.21219412531 0.19238191408 0.2049297716 0.2073713527 0.15190227495 
0.058910677785 0.19408855418 0.16913163262 0.16020832041 0.16521334333 0.21170444861 0.18900978246 0.04523691492 0.15615398149 
0.15615398149 0.098628424092 0.14394955944 0.22613848708 0.20501859465 0.11021269914 0.18900978246 0.13798260353 0.225921099 
0.10814216077 0.1083053871 0.094000103633 0.17990000498 0.058219427122 0.052086018905 0.052086018905 0.11664647197 0.10910168486 
0.1297799728 0.16116031908 0.20802365864 0.11248522221 0.18359092856 0.039253697126 0.10814424284 0.081843748783 0.24919781012 
0.26073689678 1.5245941834 1.4686500364 1.4101330719 1.3823198983 1.3152378755 1.2449599829 1.1454499 1.0613103473 
0.97276680439 0.82266371314 0.71697174643 0.51944311603 0.35909452609 0.24521393736 0.18010688264 0.35480701299 0.16829646885 
0.71912057857 0.86259058603 0.9407286089 1.0627079704 1.0325825868 1.0501162626 1.0957526376 1.2033161578 1.4825886397 
1.4330632678 1.2524766667 1.2915710421 0.86307100632 0.65058548467 1.0390657455 0.95240379985 0.85288943318 0.72620953778 
0.62388230724 0.84694387329 0.78504037704 0.74934218503 0.61123609915 0.58218096345 0.55548205323 0.58990543801 0.36412121216 
0.31831966011 0.27988947183 0.26366259694 0.24953720234 0.23779726789 0.2630226974 0.26963370713 0.28006777739 0.28952215836 
0.2202667356 0.11297293153 0.11297293153 0.10839858481 0.35578634334 0.80500349425 0.60064415513 0.54802391642 0.48166367755 
0.38381762329 0.22006170263 0.11942892602 0.1418970546 1.2098793616 1.1836744998 0.9489878776 1.3772882099 0.65023853048 
0.91313590994 0.89382650955 0.25426158339 0.28085430734 0.64845461826 0.65620885531 0.66769742782 0.68233475201 0.70137045942 
0.7267064976 0.81032234808 0.91495613071 0.899857367 0.88143472732 0.85852902116 0.82944147927 0.9251113666 1.0759937289 
1.0621082024 1.0299851226 0.99905499181 0.64537371679 0.56782039861 0.52361088427 0.48145466839 0.32536423164 0.28852680133 
0.27371928601 0.26076579721 0.28424533306 0.23634056677 0.28760021771 0.31936387311 0.41699354328 0.35379825364 0.5976093439 
0.54565505453 0.53021577278 0.69535042108 0.69942728428 0.70231388885 0.69722955156 0.70036462343 0.70225693151 0.74984003479 
0.72343622092 0.75251528359 0.78085568977 0.80844145908 0.88898644305 0.91426440554 0.88658981197 0.86131184948 0.87675113123 
0.87675113123 0.87675113123 0.8485399229 0.8485399229 0.49456616809 0.42390937717 0.25130454194 0.25005806337 0.21289928627 
0.15947349712 0.20841514172 0.1529661514 0.17919946792 0.19350716651 0.20841514172 0.47483342304 0.38326427964 0.38326427964 
0.38326427964 0.38326427964 1.3457970228 0.86131184948 0.87675113123 1.2775694738 0.18300234143 0.14179568133 0.27554342791 
0.68320416828 1.4508467189 1.4192325725 0.39105823359 1.4368004839 0.15358278623 0.18491259586 1.5173327717 1.4906962467 
0.52916897984 1.5439588706 1.4633686237 1.4368004839 0.23531224273 0.13418873322 0.17653766497 0.5227590528 1.5707963268 
0.52776843801 1.5707963268 0.53208145369 1.5707963268 0.63545649023 1.5707963268 1.5977505182 1.5707963268 0.54616677514 
1.5707963268 0.30810994611 1.4747471642 0.27023348116 1.4906962467 1.5825027546 1.5557619849 0.2075802767 0.2524312758 
0.17427431268 1.5170244902 1.4902354786 0.1848348924 0.051407492097 1.6244326355 0.4710068735 0.084638093885 0.42695997199 
0.19092623422 0.13350784495 0.21146365257 0.13224159792 0.38843149975 0.36189117792 0.26929002026 1.597633783 1.6244326355 
0.44195425541 1.4900020926 0.17886028564 0.30141709415 0.35346247999 0.41758420441 1.4900020926 1.651357175 1.4638305533 
0.18875394365 0.19548300128 0.14338486306 0.084038233537 0.20279916299 1.4900020926 1.4102490991 0.5227590528 1.597633783 
0.085174925961 1.4900898499 1.4633686237 0.0751312398 0.10730973391 0.051857628024 0.52776843801 1.5707963268 1.5707963268 
0.22994337925 0.29191959709 1.5977799408 0.2032944227 0.44424755896 1.4900898499 0.44424755896 1.4900898499 1.5169270532 
1.5168683361 1.4900020926 0.026605718586 0.13418873322 0.18810693508 0.16278140806 0.38961582428 0.19560893438 0.35346247999 
1.651357175 1.5977505182 1.5707963268 1.5707963268 1.2710644113 1.6245681634 0.58824654866 0.36020118026 0.66561884741 
0.55144718592 0.37949663681 0.11338128936 0.24142556476 0.39368267881 1.6770052848 1.5169270532 0.17150927011 0.14438762946 
1.2334563828 1.5977016937 1.6244326355 0.50616978658 0.54316377457 1.5438127128 0.65806089891 0.75802137915 1.6845222083 
0.62197456899 1.5170244902 1.4902354786 0.075436763564 0.026750893396 0.15612882983 0.23793792871 0.61551311198 1.6508964069 
1.4638305533 1.4900898499 0.49611250544 1.5169270532 0.20976423868 1.5977505182 1.5168683361 1.5171600181 1.5438421354 
0.076219594234 0.097044096901 1.651357175 0.13224159792 0.076756302213 0.15612882983 0.55588286365 0.24957675256 0.35888777867 
0.32741470956 1.6246656004 1.4373742017 1.1994854022 1.4900020926 1.4904380408 1.5168683361 1.5169270532 0.097044096901 
1.3573700762 1.2712608743 1.3084486061 1.3473415711 1.3879005031 1.4165236371 1.4587774 1.295803637 1.2924980414 
1.2921410115 1.2988979407 0.92222064199 0.93722403079 0.58177670546 0.62572021035 0.91205280113 1.0927847023 1.0793935044 
0.98949971144 0.89440025244 0.81618881691 0.77788937205 0.87397950387 1.089329991 1.4143562379 1.374184419 1.3300971911 
1.30190693 1.2467924996 1.2787654968 1.2446685672 1.2474190162 0.10624574709 0.14438762946 1.4111043729 0.35888777867 
1.4111043729 1.3599205197 0.32204213335 1.6246656004 1.16550891 1.1152437084 1.0884777689 0.69255673106 0.28210413452 
0.63708057713 1.7042184519 0.4411856743 0.32658660225 1.4900020926 1.6515028037 0.058910677785 0.13418873322 1.3850549299 
0.32741470956 0.038165226606 0.038165226606 0.080026236276 1.7042184519 1.6777621003 1.6777621003 1.4899727765 1.6246656004 
0.85024219095 0.76653247738 0.67397348267 0.54733688614 0.46781039717 0.38594548544 0.30200446768 0.24728413455 0.15943911466 
0.1001856487 0.032292141544 0.033860396601 0.11171244414 0.18657985575 0.26625204915 0.39234014422 0.48383801688 0.58231114537 
0.6884387156 0.82871470436 0.87724428966 0.90426473885 0.837111849 0.86740560892 0.9044257248 0.95054684081 1.0093026635 
1.070635273 1.0093026635 0.84089666864 0.463647609 0.42141920689 0.1896907125 0.15974753388 0.33098872001 0.42274156063 
0.42274156063 1.4902354786 0.058910677785 1.5977505182 0.13065901236 0.23278335739 0.12952311124 0.64368788086 0.58666157719 
0.5174389761 0.63732153697 0.54373787055 0.4084617987 0.81751266331 0.19509276448 1.4635618205 0.21376407462 0.25804721495 
0.26211193905 0.28008094562 0.29881875591 0.29773756314 0.26087939594 0.24282097322 0.21245015282 0.20119092605 0.19892917215 
0.19681162655 0.16078432679 0.056393389531 0.03236111261 0.039253697126 0.046360220024 0.0383707128 0.13672460469 0.13672460469 
0.225921099 0.62003136277 0.74247621181 0.67805007817 0.58446389455 0.40432677101 0.85779352526 0.463647609 0.54678884089 
0.44117948041 0.29908441161 0.42343940616 0.083141231888 0.20249286931 0.23860816111 0.20281811632 0.38964603329 0.29191959709 
0.32622198937 0.29317076329 1.4641731165 1.1033666848 0.13672460469 0.20249286931 0.25069766495 0.067457621289 0.15816274624 
0.13286102378 0.42718343996 1.4377996863 1.032921365 0 0 1.3365671091 1.2714597906 1.2656209374 
1.2116024417 1.0570872047 0.98692016844 0.91753965903 0.76501575178 1.3968988819 0.72642748368 0.7062124014 0.14406556744 
0.222188532 0.19189174527 0.51197546667 0.42607443715 0.46474414045 0.50391310427 0.38897473977 0.48853860109 0.25976937746 
1.0619865829 0.99446871942 0.95829433179 0.90298844947 0.87676722093 0.86250254806 0.85059732352 0.79947946404 0.77309115305 
0.75245448668 0.70143062296 0.70380752132 0.69157839339 0.64616745314 0.55121073956 0.51146249522 0.42166975762 1.3599205197 
0.20249286931 1.4635618205 0.95853756614 0.6707784878 0.16731457699 0.91313590994 0.89382650955 0.44475618779 0.36262455008 