# vtk DataFile Version 5.1
vtk output
ASCII
DATASET POLYDATA
POINTS 4058 double
18.495000735 56.565002248 137 18.63000074 56.700002253 137 18.765000746 56.700002253 137.5 
18.900000751 56.835002258 137.5 19.035000756 56.835002258 137.5 19.170000762 56.970002264 138 
19.305000767 56.970002264 138 19.440000772 57.105002269 138 19.575000778 57.240002275 138.5 
19.710000783 57.240002275 138.5 19.845000789 57.37500228 138.5 19.980000794 57.37500228 139 
20.115000799 57.510002285 139 20.250000805 57.645002291 139 20.38500081 57.645002291 139.5 
20.520000815 57.780002296 139.5 20.655000821 57.780002296 139.5 20.790000826 57.915002301 139.5 
20.925000831 57.915002301 140 21.060000837 58.050002307 140 21.195000842 58.185002312 140 
21.330000848 58.185002312 140.5 21.465000853 58.320002317 140.5 21.600000858 58.320002317 140.5 
21.735000864 58.455002323 141 21.870000869 58.590002328 141 22.005000874 58.590002328 141 
22.14000088 58.725002334 141.5 22.275000885 58.860002339 141.5 22.41000089 9.8550003916 161 
22.41000089 9.990000397 161.5 22.41000089 10.125000402 161.5 22.41000089 58.860002339 141.5 
22.545000896 9.7200003862 161 22.545000896 10.260000408 161.5 22.545000896 10.395000413 161.5 
22.545000896 10.530000418 161.5 22.545000896 10.665000424 161.5 22.545000896 10.800000429 161.5 
22.545000896 58.860002339 142 22.680000901 9.5850003809 160.5 22.680000901 10.935000435 161.5 
22.680000901 11.07000044 161.5 22.680000901 11.205000445 161.5 22.680000901 11.340000451 161.5 
22.680000901 11.475000456 161.5 22.680000901 58.995002344 142 22.815000907 9.4500003755 160.5 
22.815000907 11.610000461 161.5 22.815000907 11.745000467 161.5 22.815000907 11.880000472 161.5 
22.815000907 12.015000477 161.5 22.815000907 12.150000483 161.5 22.815000907 58.995002344 142.5 
22.950000912 9.3150003701 160.5 22.950000912 12.285000488 161.5 22.950000912 12.420000494 161.5 
22.950000912 12.555000499 161.5 22.950000912 12.690000504 161.5 22.950000912 12.82500051 161.5 
22.950000912 12.960000515 161.5 22.950000912 59.13000235 143 23.085000917 9.1800003648 160.5 
23.085000917 13.09500052 162 23.085000917 13.230000526 162 23.085000917 13.365000531 162 
23.085000917 13.500000536 162 23.085000917 13.635000542 162 23.085000917 59.13000235 143.5 
23.220000923 9.0450003594 160 23.220000923 13.770000547 162 23.220000923 13.905000553 162 
23.220000923 14.040000558 162 23.220000923 14.175000563 162 23.220000923 14.310000569 162 
23.220000923 59.265002355 144 23.355000928 8.9100003541 160 23.355000928 14.445000574 162 
23.355000928 14.580000579 162 23.355000928 14.715000585 162 23.355000928 14.85000059 162 
23.355000928 14.985000595 162 23.355000928 59.265002355 144.5 23.490000933 8.6400003433 159.5 
23.490000933 8.7750003487 160 23.490000933 15.120000601 162 23.490000933 15.255000606 162 
23.490000933 15.390000612 162 23.490000933 15.525000617 162 23.490000933 15.660000622 162 
23.490000933 59.265002355 145 23.625000939 8.505000338 159.5 23.625000939 15.795000628 162 
23.625000939 15.930000633 162 23.625000939 16.065000638 162 23.625000939 16.200000644 162 
23.625000939 16.335000649 162 23.625000939 59.40000236 145.5 23.760000944 8.3700003326 159.5 
23.760000944 16.470000654 162 23.760000944 16.60500066 162 23.760000944 16.740000665 162 
23.760000944 16.875000671 162 23.760000944 17.010000676 162 23.760000944 59.40000236 146 
23.760000944 59.40000236 146.5 23.89500095 8.2350003272 159 23.89500095 17.145000681 162 
23.89500095 17.280000687 162 23.89500095 17.415000692 162 23.89500095 17.550000697 162 
23.89500095 17.685000703 162 23.89500095 59.535002366 147 24.030000955 8.1000003219 159 
24.030000955 17.820000708 162 24.030000955 17.955000713 162 24.030000955 18.090000719 162 
24.030000955 18.225000724 162 24.030000955 18.36000073 162 24.030000955 18.495000735 162 
24.030000955 59.535002366 147.5 24.16500096 7.9650003165 159 24.16500096 18.63000074 162 
24.16500096 18.765000746 162 24.16500096 18.900000751 162 24.16500096 19.035000756 162 
24.16500096 19.170000762 162 24.16500096 59.670002371 148 24.300000966 7.8300003111 159 
24.300000966 19.305000767 162 24.300000966 19.440000772 162 24.300000966 19.575000778 162 
24.300000966 19.710000783 162 24.300000966 19.845000789 162 24.300000966 59.670002371 148.5 
24.435000971 7.6950003058 158.5 24.435000971 19.980000794 162 24.435000971 20.115000799 162 
24.435000971 20.250000805 162 24.435000971 20.38500081 162 24.435000971 20.520000815 162 
24.435000971 20.655000821 162 24.435000971 20.790000826 162 24.435000971 20.925000831 162 
24.435000971 21.060000837 162 24.435000971 59.670002371 149 24.570000976 7.5600003004 158.5 
24.570000976 21.195000842 162 24.570000976 21.330000848 162.5 24.570000976 59.805002376 149.5 
24.705000982 7.5600003004 158.5 24.705000982 21.465000853 162.5 24.705000982 21.600000858 162.5 
24.705000982 59.805002376 150 24.840000987 7.5600003004 158.5 24.840000987 21.735000864 162.5 
24.840000987 21.870000869 162.5 24.840000987 22.005000874 162.5 24.840000987 59.940002382 150.5 
24.975000992 7.425000295 158.5 24.975000992 22.14000088 162.5 24.975000992 22.275000885 163 
24.975000992 59.940002382 151 25.110000998 7.425000295 158.5 25.110000998 22.41000089 163 
25.110000998 22.545000896 163 25.110000998 22.680000901 163 25.110000998 60.075002387 151 
25.245001003 7.425000295 158 25.245001003 22.815000907 163 25.245001003 22.950000912 163 
25.245001003 23.085000917 163 25.245001003 60.075002387 151 25.380001009 7.425000295 158 
25.380001009 23.220000923 163.5 25.380001009 23.355000928 163.5 25.380001009 23.490000933 163.5 
25.380001009 60.075002387 151 25.515001014 7.425000295 158 25.515001014 23.625000939 163.5 
25.515001014 23.760000944 163.5 25.515001014 60.075002387 151 25.650001019 7.425000295 158 
25.650001019 23.89500095 163.5 25.650001019 24.030000955 163.5 25.650001019 24.16500096 164 
25.650001019 60.075002387 151.5 25.785001025 7.2900002897 158 25.785001025 24.300000966 164 
25.785001025 24.435000971 164 25.785001025 24.570000976 164 25.785001025 60.210002393 151.5 
25.92000103 7.2900002897 158 25.92000103 24.705000982 164 25.92000103 24.840000987 164 
25.92000103 60.210002393 151.5 26.055001035 7.2900002897 158 26.055001035 24.975000992 164.5 
26.055001035 25.110000998 164.5 26.055001035 25.245001003 164.5 26.055001035 60.210002393 151.5 
26.190001041 7.2900002897 158 26.190001041 25.380001009 164.5 26.190001041 25.515001014 164.5 
26.190001041 25.650001019 164.5 26.190001041 60.345002398 151.5 26.325001046 7.2900002897 158 
26.325001046 25.785001025 164.5 26.325001046 25.92000103 164.5 26.325001046 26.055001035 164.5 
26.325001046 60.345002398 151.5 26.460001051 7.2900002897 157.5 26.460001051 26.190001041 165 
26.460001051 26.325001046 165 26.460001051 26.460001051 165 26.460001051 60.480002403 151.5 
26.595001057 7.1550002843 157.5 26.595001057 26.595001057 165 26.595001057 26.730001062 165 
26.595001057 60.480002403 151.5 26.730001062 7.1550002843 157.5 26.730001062 26.865001068 165 
26.730001062 27.000001073 165 26.730001062 27.135001078 165.5 26.730001062 60.480002403 151.5 
26.730001062 60.615002409 159 26.865001068 7.1550002843 157.5 26.865001068 27.270001084 165.5 
26.865001068 27.405001089 165.5 26.865001068 60.480002403 152 26.865001068 60.615002409 159 
27.000001073 7.1550002843 157.5 27.000001073 27.540001094 165.5 27.000001073 27.6750011 165.5 
27.000001073 27.810001105 165.5 27.000001073 60.615002409 152 27.000001073 60.615002409 159 
27.135001078 7.1550002843 157.5 27.135001078 27.94500111 165.5 27.135001078 28.080001116 165.5 
27.135001078 28.215001121 166 27.135001078 60.615002409 152 27.135001078 60.750002414 158.5 
27.270001084 7.1550002843 157.5 27.270001084 28.350001127 166 27.270001084 28.485001132 166 
27.270001084 28.620001137 166 27.270001084 28.755001143 166 27.270001084 60.615002409 152 
27.270001084 60.750002414 158.5 27.405001089 7.1550002843 157.5 27.405001089 28.890001148 166 
27.405001089 29.025001153 166 27.405001089 60.615002409 152 27.405001089 60.750002414 158.5 
27.540001094 7.1550002843 157.5 27.540001094 29.160001159 166.5 27.540001094 29.295001164 166.5 
27.540001094 29.430001169 166.5 27.540001094 60.750002414 152 27.540001094 60.750002414 158.5 
27.6750011 7.1550002843 157.5 27.6750011 29.565001175 166.5 27.6750011 29.70000118 166.5 
27.6750011 60.750002414 152 27.6750011 60.885002419 158.5 27.810001105 7.0200002789 157 
27.810001105 29.835001186 166.5 27.810001105 29.970001191 166.5 27.810001105 30.105001196 167 
27.810001105 60.750002414 152 27.810001105 60.885002419 158.5 27.94500111 7.0200002789 157 
27.94500111 30.240001202 167 27.94500111 30.375001207 167 27.94500111 30.510001212 167 
27.94500111 60.885002419 152.5 27.94500111 60.885002419 158.5 28.080001116 7.0200002789 157 
28.080001116 30.645001218 167 28.080001116 30.780001223 167 28.080001116 60.885002419 152.5 
28.080001116 60.885002419 158.5 28.215001121 7.0200002789 157 28.215001121 30.915001228 167 
28.215001121 31.050001234 167.5 28.215001121 31.185001239 167.5 28.215001121 33.345001325 183 
28.215001121 33.48000133 183 28.215001121 33.615001336 182.5 28.215001121 33.750001341 182.5 
28.215001121 33.885001346 182 28.215001121 34.020001352 182 28.215001121 34.155001357 182 
28.215001121 34.290001363 181.5 28.215001121 34.425001368 181.5 28.215001121 34.560001373 181.5 
28.215001121 60.885002419 152.5 28.215001121 61.020002425 158.5 28.350001127 7.0200002789 157 
28.350001127 31.320001245 167.5 28.350001127 31.45500125 167.5 28.350001127 33.21000132 183 
28.350001127 34.695001379 181 28.350001127 34.830001384 181 28.350001127 34.965001389 180.5 
28.350001127 35.100001395 180.5 28.350001127 35.2350014 180.5 28.350001127 35.370001405 180.5 
28.350001127 60.885002419 152.5 28.350001127 61.020002425 158.5 28.485001132 7.0200002789 157 
28.485001132 31.590001255 167.5 28.485001132 33.21000132 183 28.485001132 35.505001411 180 
[...]
CELL_DATA 4057
SCALARS angle%0A[rad] double
LOOKUP_TABLE default
0 0.96854713859 0.71006085842 0.56970786939 0.52652691451 0.4682390316 0.58267513696 0.60372294932 0.67907721666 
0.72026127637 0.81172774694 0.85930024663 0.90223890551 0.9061249677 0.97070487264 0.95882514382 1.0136012354 1.0089769033 
1.0819469035 1.0951143175 1.134572201 1.1646610675 1.1701243816 1.178079671 1.0890029297 1.0488798662 1.0612189972 
0.95567545396 0.95582808035 0.8997041857 0.81612666588 0.66094044445 0.58926372201 0.5531130764 0.46941727226 0.4619963191 
0.42719791968 0.4631054792 0.39190967126 0.35255531527 0.346900401 0.58662210971 0.57409852799 0.53559837303 0.69882970858 
0.68184822469 0.64864401403 0.57412958144 0.5584874494 0.5584874494 0.57032190118 0.53616627108 0.5178853205 0.39908615903 
0.39291310828 0.38889469562 0.35927938612 0.33238158495 0.22325384268 0.20951450987 0.20227695496 0.17868677914 0.37681344602 
0.38060861968 0.3760808966 0.36570340988 0.34981679959 0.24361060834 0.2605245774 0.24209397833 0.24805024043 0.27423581157 
0.13918707828 0.22033177774 0.13918707828 0.27261055107 0.13918707828 0.55599544736 1.7003981547 1.8392570156 1.7948167708 
1.4697514057 1.2199336167 1.0908056331 1.041316068 0.72721520747 0.45319542219 0.24042651242 0.081209194148 0.054962765233 
0.053433197549 0.053433197549 0.035656627184 0.077691728102 0.10082978606 0.033527448944 0.075984057067 0.074511040933 0.079872474908 
0.084423622743 0.13644896887 0.10191434589 0.036507377559 0.025132230511 0.025132230511 0.035199849164 0 0.025699994231 
0.025440103621 0.036772086951 0.051160272901 0.081193956918 0.10226283656 0.10606692092 0.115084364 0.13007570616 0.086996243829 
0.10566572529 0.058392819261 0.081351652565 0.04429527462 0.057683344719 0.15884263912 0.11783996787 0.083638690761 0.059258280126 
0.11812737879 0.074558962378 0.058960898528 0.026412600039 0.037175280707 0.05902247467 0.026275481901 0.025900407941 0.025900407941 
0.025900407941 0.026348550196 0.025900407941 0.025900407941 0.025900407941 0.025900407941 0.037154547568 0.058252526972 0.026486823661 
0.058252526972 0.074132059952 0.09457347469 0.083849820697 0.095538425051 0.11172526437 0.095538425051 0.095538425051 0.059572572904 
0.074867610262 0.059572572904 0.026416002513 0.026750893396 0.026406795122 2.1073424255e-08 2.1073424255e-08 2.1073424255e-08 2.1073424255e-08 
0.026406795122 0.026406795122 0.052589707644 0.059440763125 0.052589707644 0.052589707644 0.078516173781 0.078516173781 0.10415564012 
0.082668195939 0.058252526972 0.058252526972 0.036857654107 0.052056462649 0.083858864053 0.11867506683 0.16945431436 0.23549186347 
0.29375133271 0.23776534625 0.26114337516 0.27857875401 0.3015053121 0.27296672726 0.2023907919 0.13555070936 0.1094186989 
0.095379366259 0.12606347243 0.18311019727 0.1611950367 0.17287344383 0.21531298552 0.22442409243 0.19141126365 0.13365833517 
0.084635613445 0.060021807755 0.060121637655 0.038054528324 0.026837203318 0.026837203318 0.037951058558 0.037951058558 0.037951058558 
0.037951058558 0.026837203318 0.026837203318 0.038054528324 0.038054528324 0.026915082233 0.060230578582 0.097044096901 0.097044096901 
0.060300643582 0.076288829507 0.17243064353 0.17243064353 0.15243918847 0.17243064353 0.17231410974 0.097195734459 0.076219594234 
0.097044096901 0.097044096901 0.085079281462 0 0.026837203318 0.026837203318 0.026837203318 0.037834569676 0.026837203318 
0.026837203318 0.026837203318 0.03800639731 0.03800639731 0.026837203318 0.026837203318 0.026837203318 0 0.038054528324 
0.037951058558 0.037951058558 0.026915082233 0.080706476945 0.076067713233 0.060108489129 0.053869273626 0.053869273626 0.026915082233 
0.053810620226 0.026944376732 2.1073424255e-08 2.1073424255e-08 0.026954191393 0.038116654675 0.038137461491 0.038137461491 0.026954191393 
0.026954191393 0.038137461491 0.038137461491 0.026954191393 0.026954191393 0.026954191393 0.038061396229 0.060208740479 0.096901076453 
0.060191309939 0.038026843819 0.059969286415 0.059969286415 0.038026843819 0.059969286415 0.059969286415 0.03789651772 0.03789651772 
0.03789651772 0.037944629343 0.037944629343 0.03789651772 1.4901161194e-08 0.026749889395 1.4901161194e-08 1.4901161194e-08 0.026749889395 
1.4901161194e-08 0.03789651772 0.037944629343 0.026837456221 0.03789651772 0.026837456221 0.026837456221 0.03789651772 1.4901161194e-08 
0.026749889395 0.026749889395 1.4901161194e-08 0.026749889395 1.4901161194e-08 1.4901161194e-08 0.037944629343 0.037944629343 0.026905366907 
0.059969286415 0.080560509621 0.053810620226 0.1075441236 0.1075441236 0.13452773758 0.13452773758 0.10777784818 0.10777784818 
0.13733010194 0.12054876066 0.053967227959 0.053967227959 0.026983613979 0.026983613979 1.4901161194e-08 1.4901161194e-08 0.038054367628 
0.038054367628 0.038054367628 0.038054367628 1.4901161194e-08 0.026944376732 0.026944376732 0.053810620226 0.080560509621 0.092440437676 
0.071448356059 0.081549743593 0.11052671408 0.13629290093 0.17487811692 0.12702305801 0.21146365257 0.1848348924 0.14046472091 
0.10404998369 0.16409005033 0.13912989428 0.11506959843 0.076814568414 0.056817071461 0.072107818325 0.057327284845 0.05018056158 
0.05018056158 0.050259313574 0.072084583431 0.072084583431 0.072084583431 0.08518749307 0.11302732891 0.15534512501 0.16359414367 
0.14003586808 0.12262474867 0.13259386216 0.089189944597 0.05132580371 0.0284164965 0.041205523684 0.07594749131 0.086561767714 
0.081843748783 0.028174259048 0.028174259048 0.032578190224 0.032578190224 0.032578190224 0.028174259048 0.039634585403 0.044499035482 
0 0.01201631352 0.021373310541 0.019938267508 0.028084942811 0.07416671574 0.039654568145 0.11347293372 0.19308000243 
0.078508162164 0.25571181466 1.3325149877 0.17600724166 0.17407289306 0.19696248736 0.15147250144 0.14957768684 0.096779027531 
0.12678398504 0.077114373665 0.13062839643 0.0946527728 0.1308733347 0.12362431379 0.18704205127 0.18001752917 0.24225120779 
0.24301846344 0.23794826206 0.23952140694 0.26641478992 0.21008985207 0.17873950201 0.18880338724 0.14863733253 0.16053039219 
0.11899052848 0.10877080144 0.087910258911 0.068222370849 0.092174229864 0.15115450761 0.079377755587 0.028923302426 0.096318326309 
0.019252115651 0.14089110706 0.37609388417 0.21010480121 1.1371016656 1.110210183 0.2561242835 0.37129620027 0.36200241565 
0.37129620027 0.36200241565 0.27686227957 0.24274229654 0.27686227957 0.2883020426 0.24274229654 0.21136363348 0.24274229654 
0.23149111101 0.17646890451 0.12293039538 0.30262976805 0.27802008604 0.25466934416 0.085612523244 0.28983346204 0.25638233099 
0.17031973593 0.19503068123 0.3307018229 0.34534366065 0.33813650018 0.36324062095 0.48598067469 0.40020101393 0.37698390274 
0.37636610003 0.50407181895 0.52336385624 0.52336385624 0.51456294317 0.49025584732 0.45792150573 0.44900529884 0.34428754449 
0.33344167681 0.32181683678 0.52220120885 0.41118097532 0.42381090794 0.41433780992 0.39514093869 0.36439264392 0.33375749997 
0.30305401596 0.23177077141 0.1955455571 0.17731103757 0.1417202454 0.10010870331 0.058208849757 0.1286692964 0.18799087786 
0.38874470111 0.37396441167 0.36106403873 0.35168726442 0.30766239684 0.28952858238 0.28952858238 0.28952858238 1.9171439466 
1.8231642476 1.8332700114 1.5553550467 1.4684884652 1.3316159066 1.1565187447 1.0755665691 1.0045647259 0.94440928322 
0.91441967455 0.82342167375 0.77422006507 0.70443739594 0.65223555058 0.61528335772 0.56531062185 0.54231974316 0.51930286373 
0.58017948367 0.51315589656 0.44892312775 0.44089683158 0.31886952765 0.2992269998 0.2947664876 0.26306539202 0.17826853885 
0.13049982408 0.13229099989 0.12289336317 0.032616971553 0.032616971553 0.032616971553 0.032616971553 0.032616971553 0.020507054983 
0.13533185918 0 0.046868930744 0.046868930744 0 0.042156522909 0.15718414593 0.032616971553 0 
0.032616971553 0.06447458487 0.11880136958 0.032616971553 0.032616971553 0.032616971553 0.10246666005 0.12106842819 0.14763607361 
0.061481792898 0.093743802237 0.11149478134 0.13635380849 0.16995565828 0.049813250958 0.082288628094 0.11010435841 0.16404799661 
0.19356474684 0.063501816686 0.010956066693 0.16404799661 0.23800815225 0.30411051134 0.41848421236 0.069811734842 0.30783103888 
0.48289460252 0.70609635262 0.47063194528 0.34236359072 0.30731437387 0.20995952894 0.20995952894 0.1944377769 0.18244001359 
0.14804388134 0.17428819411 0.15523307928 0.12628746375 0.17105597223 0.17428819411 0.16369727418 0.14055071964 0.1116340516 
0.042109930365 0.042109930365 0.01501651457 0.01501651457 0.042109930365 0.12505761017 0.11703675818 0.042109930365 0.042109930365 
0.032630418839 0 0.040625757054 0.063735935952 0.13759569195 0 0.032630418839 0.042109930365 0.042109930365 
0.032630418839 0.032630418839 0.042109930365 0.032630418839 0.028456056876 0.028456056876 0.032630418839 0.042109930365 0.032630418839 
0.032630418839 0.042109930365 0.042109930365 0.032630418839 0 0.030589770139 0.052654498792 0.032630418839 0 
0 0 0.10735434964 0.13027970941 0.13259626869 0.16841926821 0.28202823714 0.3189903323 0.32505061676 
0.33280492037 0.49686898019 0.54803141788 0.53592632781 0.55495048586 0.63733613511 0.76754186902 0.76969578056 0.7927986892 
0.93373861831 0.95712806509 0.95425082156 0.98300233218 1.0085136142 1.1134019558 1.1333844401 1.16610307 1.1937338825 
1.2221542039 1.2513291335 1.2351014341 1.1723382628 1.1208337736 1.1176515084 1.0281713093 0.96923314759 0.92280961643 
0.88644872287 0.80016463932 0.67424716682 0.62127814183 0.61568123349 0.5668880713 0.53485457311 0.51075540049 0.48320101934 
0.29883284804 0.27776223293 0.18353792442 0.19000990215 0.1704172744 0.15306984009 0.16639050014 0.14662246673 0.14351516227 
0.1933318223 0.18813581376 0.16875805167 0.33182478035 0.343136675 0.343136675 0.23336741524 0.20046186112 0.20287013135 
0.17175592481 0.35687778466 0.35687778466 0.34480831964 0.34480831964 0.36090586001 0.3416725177 0.32345223115 0.36090586001 
0.34658817791 0.34658817791 0.34658817791 0.35923328293 0.34112257728 0.2463591898 0.2463591898 0.2463591898 0.23145639294 
0.20881726981 0.18052527273 0.17643267442 0.16442846777 0.15738489431 0.15150598126 0.20023111885 0.17694028352 0.20143425188 
0.24125705015 0.22493988392 0.21007860212 0.19688296849 0.17025871829 0.17470630406 0.18031936964 0.18726634333 0.19629971187 
0.18522665264 0.19937190308 0.21571273527 0.18579559672 0.18962786799 0.19527396851 0.20327221868 0.18500193862 0.2011071864 
0.22247414438 0.25044050242 0.28676448485 0.33383496699 0.39497425864 0.44832312133 0.47680694088 0.52816833585 0.63553614259 
0.91032182795 0.30230001168 0.3218290784 0.23564288851 0.26772926727 0.20251233689 0.20251233689 0.20251233689 0.25266079817 
0.21424105966 0.23024237895 0.24743359383 0.16984929283 0.10404149577 0.03307381897 0.03307381897 0.12184422197 0.13869709339 
0.15651071648 0.17535496315 0.14459326822 0.13002990961 0.11703675818 0.064758327132 0.10916026758 0.12420348625 0.14055071964 
0.14055071964 0.12420348625 0.11667902502 0.042467162727 0.032127908292 0.032127908292 0.042467162727 0.12628746375 0.14478305289 
0.12750329716 0.1116340516 0.10835347336 0.12420348625 0.14055071964 0.16369727418 0.26549172473 0.10259372277 0.13904662164 
0.17701626135 0.21912349536 0.41206617749 0.43535746074 0.4597511803 0.53990199434 0.39772422427 0.4381245897 0.47897103654 
0.61880071913 0.67270520727 0.69301732629 0.73089606694 0.77436430047 0.79560289094 0.67757953887 0.81159441869 0.83734701357 
0.89315536336 0.92525400086 0.77878070537 0.68053898066 0.61096306633 0.48837850702 0.39790651091 0.31704668427 0.20671908156 
0.13287079821 0.066310318338 0.080384820243 0.12355433892 0.19029404987 0.20401981105 0.27659646258 0.321625851 0.35810390616 
0.45447639886 0.48888749758 0.42043135897 0.50060936423 0.43264173509 0.36048747087 0.39795242392 0.35892476975 0.28092853755 
0.31751923477 0.27763241239 0.20640373812 0.25927268867 0.16726935671 0.098606380126 0.20115460096 0.1312991826 0.056349131998 
0.031949618848 0.097554970509 0.015493361606 0.079183437214 0.083909102068 0.030812449156 0.078765643001 0.10219625917 0.062303272007 
0.1129357962 0.16079664807 0.060911653056 0.23905834934 0.89499159273 0.17854224147 0.17854224147 0.17854224147 0.17854224147 
0.11043328916 0.12988347097 0.1532211505 0.17832144339 0.19548249051 0.14205828559 0.25166922897 0.26831694469 0.28594632777 
0.31392237639 0.074212435118 0.074212435118 0.074212435118 0.054964166466 0.070070293695 0.099832268 0.10056490849 0.23051718356 
0.25083965467 0.085406363881 0.096330555586 0.021779651083 0.044232900268 0.071248462754 0.080457902427 0.111996184 0.16258726113 
0.079663628 0.035058501264 0.074212435118 0.06000354838 0.095219155761 0.16258726113 0.54281082733 0.51752904103 0.58802892957 
0.48469702048 0.48469702048 1.6690543825 1.525310645 1.2872233688 0.84481716971 0.62759507884 0.42467821399 0.26524978582 
0.43080564032 0.57317662541 0.93259572636 1.3000267789 1.2665190657 1.2253324464 1.1883628404 1.1524605361 1.1072427666 
1.0698819935 1.0339889251 0.35130570087 0.46618406115 0.58619579773 0.57129566495 0.43096092382 0.33513027719 0.28077108124 
0.17175562185 0.15520895463 0.026488390966 0.026488390966 0.11466769846 0.046615766493 0.1506204033 0.28386978152 0.30282470361 
0.29593377988 0.075209507516 0.0940147781 0.1565456322 0.17308264044 0.17868221585 0.1606555303 0.17137753388 0.26121397692 
0.35120586876 0.25543791782 0.25543791782 0.25543791782 0.37196284584 0.32097465897 0.28234197389 0.30231984665 0.27504623908 
0.36706888628 0.38266515649 0.34200208018 0.27474115175 0.21146321675 0.18050430618 0.20207044388 0.28697514977 0.17773670799 
0.21124158491 0.12374868082 0.1357006417 0.092095689601 0.06447458487 0.26338742329 0.16480227954 0.16480227954 0.16480227954 
0.14506903655 0.018434590183 0.1214037254 0.16951660995 0.16044552007 0.14211771918 0.13056715604 0.11108976875 0.13056715604 
0.14211771918 0.16951660995 0.16951660995 0.14804388134 0.12531062948 0.030356168512 0.1214037254 0.14474055197 0.16046402485 
0.16046402485 0.14211771918 0.13056715604 0.030356168512 0.12531062948 0.14211771918 0.16274524327 0.16046402485 0.16046402485 
0.13056715604 0.11108976875 0.1214037254 0.14474055197 0.16046402485 0.14907944346 0.16274524327 0.14631959795 0.12806917221 
0.11070923423 0.10861721052 0.064211900579 0.032433910791 0.31373903878 0.29449479854 0.27641512063 0.27371776388 0.1676655264 
0.15486282658 0.18410342548 0.44811706977 0.45250665786 0.45250665786 0.43303380461 0.43114985922 0.41315095813 0.33580857328 
0.57367808596 0.57367808596 0.5541032086 0.5356178351 0.51815073147 0.41557876753 0.40601796839 0.4000886543 0.4000886543 
0.39654886765 0.40754892633 0.4000886543 0.38608884825 0.37298547984 0.3607103106 0.26071594095 0.2516705922 0.2516705922 
0.24648958653 0.24648958653 0.26071594095 0.24648958653 0.23807303582 0.23029552722 0.2231060167 0.11400679506 0.020085190159 
0.01376347112 0.007078910757 0.029826385991 0.029826385991 0.0063768213982 1.4901161194e-08 0.0060176394474 0.039397614348 0.12142887826 
0.11043624015 0.11043624015 0.11043624015 0.11615503573 0.12142887826 0.11136222317 0.11136222317 0.11136222317 0.10996658375 
0.12142887826 0.11136222317 0.11136222317 0.11136222317 0.10996658375 0.12142887826 0.21805288634 0.22402732878 0.23051026915 
0.23754730179 0.23894673863 0.36581611438 0.37560333095 0.38608884825 0.39733635667 0.40758357378 0.28641736238 0.38293866312 
0.39117449473 0.38315616053 0.39562659148 0.41961912711 0.49639031474 0.5655732959 0.56403309947 0.58222578253 0.60162090233 
0.66808985802 0.69038802406 0.75488419035 0.77705093802 0.80037231962 0.86456721052 0.88327178166 0.88329099845 0.9089350046 
0.92832404278 1.0242306828 1.0476067674 0.96343099562 0.96364454252 0.87805950612 0.8531551216 0.85687985547 0.9025463255 
0.83267746267 0.82862470171 0.80940488284 0.76071269793 0.72046078736 0.71689546176 0.73554745278 0.72759792174 0.6344747845 
0.6157552059 0.67030972968 0.69173220877 0.62147948386 0.60311875742 0.62187159166 0.57080187375 0.55828208251 0.53978424538 
0.52162570307 0.4957276673 0.51400686067 0.4661957132 1.0630216227 0.71986251966 0.45269296238 0.2844949487 0.29843619499 
0.29843619499 0.39833297516 0.1321370098 0.086730917628 0.086730917628 0.086730917628 0.086730917628 0.086730917628 0.10618838128 
0.10618838128 0.075758972552 0.075758972552 0.071825708093 0.06427086555 0.15933108071 0.15933108071 0.051885566425 0.039769266305 
0.28162404256 0.25353973691 0.14583448698 0.11078635775 0.075738469879 0.040747364614 0.097954686779 0.12684497947 0.045440875955 
0.032630418839 0.29285914914 0.16848686179 0.14585443445 0.12906207643 0.11147101663 0.094382821731 0.081308325989 0.060907143579 
0.032630418839 0.046881890999 0.10391917001 0.18551994248 0.25389295203 0.3505694548 0.48895424604 0.56233321618 0.54545107002 
0.40440817339 0.37944603733 0.35785805887 0.36935109998 0.31269690457 0.2884303918 0.26520462703 0.24585017141 0.22768066294 
0.21064020083 0.14596918208 0.082277306202 0.12293148473 0.15099475717 0.15625632182 0.2246611432 0.20557306783 0.15547457832 
0.10029626985 0.075963049609 0.16849574236 0.52448019661 0.53350132631 0.52525589252 0.53350132631 0.64013176667 0.20245444182 
0.11965378313 0.11232692072 0.12843882601 0.16645236104 0.17532537019 0.25941824734 0.17521011104 0.18652041685 0.21558574137 
0.32662008194 0.18245642151 0.27348363595 0.39891871293 0.42790776787 0.36396333604 0.39299803878 0.44371399357 0.47762724368 
0.61465493743 0.56980774354 0.64070979196 0.65163660708 0.70247466025 0.75299952013 0.80313673585 0.8959275289 0.97076762879 
1.0731952234 1.1393558677 1.1316978418 1.1235751952 1.2000194816 1.2624722183 1.3705153631 1.3633112112 1.3845659599 
1.4816642052 1.4680032198 1.4362631963 1.5420150383 1.5238546185 1.601116805 0.15311140035 0.13651320139 1.4459822294 
1.4693031012 1.4646172308 1.4212606713 1.4252982268 1.4053139823 1.401032349 1.3818150679 1.3684253552 1.3235641164 
1.3414267602 1.3003373539 1.2594401024 1.2188891573 1.1447212169 1.101458941 1.017497946 0.97397771895 0.95380010594 
0.91529170041 0.8168206089 0.75871907969 0.5460110108 0.44941696859 0.43360877645 0.37656434334 0.33258304934 0.29783488493 
0.29562485521 0.26707712092 0.20413633298 0.21838882539 0.19478800674 0.20569271922 0.19223738816 0.17155321186 0.1549470446 
0.12480224998 0 0.12480224998 0.13975052758 0.15562759083 0.15562759083 0.15562759083 0.15562759083 0.07036748537 
0.066809661759 0.066735506526 0.14981193595 0.17871550731 0.20929401614 0.32749262516 0.099918282451 0.099918282451 0.099918282451 
0.099918282451 0.10119898691 0.10467910099 0.10981003227 0.28146320945 0.1328818224 0.1328818224 0.1328818224 0.13384501565 
0.13648855279 0.21321679959 0.31394596789 0.09947687585 0.09947687585 0.09947687585 0.09947687585 0.10169176764 0.18067704176 
0.066146315874 0.3104916358 0.18526347768 0.15282859099 0.12160732639 0.032963539949 0.06563923069 0.072464654815 0.072464654815 
0.072464654815 0.072464654815 0.072464654815 0.239253849 0.1421529994 0.1421529994 0.15220620274 0.1437760407 0.1437760407 
0.39064915175 0.37285919242 0.27845522533 0.27198237227 0.26532187995 0.25850013626 0.25155791355 0.46613398034 0.36631852824 
0.34697349946 0.3289023617 0.31222851979 0.2309800975 0.51556564034 0.52728915428 0.52683927113 0.52652003706 0.52639516067 
0.52655658289 0.51135339023 0.49829896148 0.48783271088 0.40177689062 0.37466325546 0.37833488325 0.3892574312 0.38553953483 
0.37037525473 0.36117103805 0.36904172995 0.30766239684 0.30766239684 0.039614159591 1.6055961192 0.032468830216 0 
1.5794767729 0.11051221792 1.5495960568 0.12610501666 1.4575106393 0.15390664497 0.15584100708 1.4000435725 1.3670951628 
0.11051221792 1.3344091601 0.12610501666 1.2215601065 0.1425954008 1.1720004061 1.5461659396 1.2972951639 1.3270924648 