# vtk DataFile Version 5.1
vtk output
ASCII
DATASET POLYDATA
POINTS 4086 double
18.090000719 56.565002248 84.5 18.225000724 56.565002248 85 18.225000724 56.700002253 85 
18.36000073 56.835002258 81.5 18.36000073 56.835002258 85 18.495000735 56.970002264 81.5 
18.495000735 56.970002264 85 18.63000074 56.970002264 81.5 18.63000074 57.105002269 85.5 
18.765000746 57.105002269 81.5 18.765000746 57.105002269 82 18.765000746 57.105002269 86 
18.900000751 57.105002269 81.5 18.900000751 57.105002269 82 18.900000751 57.105002269 86 
18.900000751 57.240002275 80 18.900000751 57.240002275 80.5 18.900000751 57.240002275 81 
19.035000756 57.240002275 82 19.035000756 57.240002275 85.5 19.035000756 57.37500228 81.5 
19.035000756 57.37500228 82 19.170000762 57.37500228 82.5 19.170000762 57.37500228 85 
19.170000762 57.510002285 82.5 19.305000767 57.510002285 83 19.305000767 57.510002285 84 
19.305000767 57.510002285 84.5 19.440000772 57.510002285 83 19.440000772 57.510002285 84 
19.440000772 57.645002291 84 19.575000778 57.510002285 83 19.575000778 57.510002285 84 
19.575000778 57.645002291 84 19.710000783 57.645002291 83 19.710000783 57.645002291 84 
19.845000789 57.780002296 83 19.845000789 57.780002296 83.5 19.980000794 57.780002296 83 
19.980000794 57.780002296 83.5 20.115000799 57.915002301 83 20.250000805 58.050002307 83 
20.38500081 58.185002312 83 20.520000815 58.320002317 82.5 20.655000821 58.320002317 82 
20.655000821 58.455002323 82 20.790000826 58.590002328 81.5 20.925000831 58.590002328 81 
21.060000837 58.590002328 81 21.195000842 58.725002334 81 21.330000848 58.860002339 81 
21.465000853 58.995002344 81.5 21.600000858 59.13000235 82 21.735000864 59.265002355 82.5 
21.870000869 59.40000236 82.5 22.005000874 59.40000236 82.5 22.14000088 59.40000236 82.5 
22.275000885 59.40000236 82.5 22.41000089 59.40000236 82.5 22.545000896 59.535002366 83 
22.680000901 59.535002366 83.5 22.815000907 59.535002366 83.5 22.950000912 59.535002366 83.5 
23.085000917 59.670002371 83.5 23.220000923 59.805002376 83 23.355000928 59.940002382 83 
23.490000933 59.940002382 83 23.625000939 59.670002371 91.5 23.625000939 59.940002382 83 
23.760000944 59.670002371 92 23.760000944 59.940002382 83 23.89500095 58.455002323 106.5 
23.89500095 58.590002328 106.5 23.89500095 59.670002371 92.5 23.89500095 59.670002371 93 
23.89500095 60.075002387 82.5 24.030000955 58.320002317 106.5 24.030000955 58.725002334 106.5 
24.030000955 59.805002376 93.5 24.030000955 60.210002393 82 24.16500096 58.185002312 106.5 
24.16500096 58.860002339 106.5 24.16500096 59.805002376 94 24.16500096 60.345002398 81.5 
24.300000966 58.050002307 106.5 24.300000966 58.995002344 106 24.300000966 59.805002376 94.5 
24.300000966 60.345002398 81 24.435000971 57.915002301 106.5 24.435000971 59.13000235 106 
24.435000971 59.805002376 95 24.435000971 60.345002398 81 24.570000976 33.21000132 123 
24.570000976 33.345001325 123 24.570000976 33.345001325 124 24.570000976 33.48000133 123 
24.570000976 33.48000133 124 24.570000976 33.615001336 123.5 24.570000976 56.160002232 108 
24.570000976 56.295002237 108 24.570000976 56.430002242 107.5 24.570000976 56.565002248 107.5 
24.570000976 56.700002253 107.5 24.570000976 56.835002258 107.5 24.570000976 57.915002301 106.5 
24.570000976 59.265002355 105.5 24.570000976 59.40000236 105.5 24.570000976 59.805002376 95.5 
24.570000976 60.480002403 81 24.705000982 32.940001309 123 24.705000982 33.075001314 123 
24.705000982 33.075001314 124.5 24.705000982 33.21000132 124.5 24.705000982 33.615001336 123 
24.705000982 33.615001336 124 24.705000982 33.750001341 123 24.705000982 33.750001341 124 
24.705000982 33.885001346 123 24.705000982 33.885001346 123.5 24.705000982 55.890002221 108 
24.705000982 56.025002226 108 24.705000982 56.970002264 107.5 24.705000982 57.780002296 106.5 
24.705000982 59.535002366 105 24.705000982 59.670002371 105 24.705000982 59.940002382 96 
24.705000982 60.615002409 81 24.840000987 32.130001277 125 24.840000987 32.265001282 125 
24.840000987 32.670001298 124.5 24.840000987 32.805001304 124.5 24.840000987 32.940001309 124.5 
24.840000987 33.075001314 124.5 24.840000987 33.21000132 124.5 24.840000987 33.345001325 124.5 
24.840000987 33.48000133 124.5 24.840000987 33.615001336 124.5 24.840000987 34.020001352 122.5 
24.840000987 34.020001352 123 24.840000987 34.155001357 122.5 24.840000987 34.155001357 123 
24.840000987 34.290001363 122.5 24.840000987 54.135002151 109.5 24.840000987 54.270002156 109.5 
24.840000987 55.62000221 108 24.840000987 55.755002216 108 24.840000987 57.105002269 107 
24.840000987 57.240002275 107 24.840000987 57.37500228 107 24.840000987 57.510002285 107 
24.840000987 57.645002291 106.5 24.840000987 59.805002376 105 24.840000987 59.940002382 96.5 
24.840000987 59.940002382 104.5 24.840000987 59.940002382 105 24.840000987 60.750002414 81.5 
24.975000992 32.400001287 124.5 24.975000992 32.535001293 124.5 24.975000992 33.075001314 122.5 
24.975000992 33.345001325 125 24.975000992 33.48000133 122 24.975000992 33.48000133 124.5 
24.975000992 33.615001336 124.5 24.975000992 34.155001357 122 24.975000992 34.290001363 122 
24.975000992 34.425001368 122.5 24.975000992 53.730002135 110 24.975000992 53.86500214 110 
24.975000992 54.000002146 110 24.975000992 54.135002151 109.5 24.975000992 54.270002156 109.5 
24.975000992 54.405002162 109.5 24.975000992 54.540002167 109.5 24.975000992 54.675002173 109.5 
24.975000992 54.810002178 109 24.975000992 54.945002183 109 24.975000992 55.080002189 109 
24.975000992 55.215002194 108.5 24.975000992 55.350002199 108 24.975000992 55.485002205 108 
24.975000992 60.075002387 97 24.975000992 60.075002387 104 24.975000992 60.075002387 104.5 
24.975000992 60.750002414 76.5 24.975000992 60.750002414 81.5 25.110000998 32.400001287 124.5 
25.110000998 32.940001309 122.5 25.110000998 33.21000132 122 25.110000998 33.345001325 125 
25.110000998 33.48000133 124.5 25.110000998 33.615001336 121.5 25.110000998 33.615001336 124.5 
25.110000998 33.750001341 121.5 25.110000998 34.425001368 122 25.110000998 34.425001368 123 
25.110000998 34.560001373 122 25.110000998 34.560001373 122.5 25.110000998 53.325002119 110.5 
25.110000998 53.460002124 110.5 25.110000998 53.59500213 110 25.110000998 60.075002387 103.5 
25.110000998 60.210002393 97.5 25.110000998 60.750002414 81.5 25.110000998 60.885002419 77 
25.245001003 32.265001282 124.5 25.245001003 32.805001304 122.5 25.245001003 33.21000132 122 
25.245001003 33.345001325 121.5 25.245001003 33.345001325 125 25.245001003 33.48000133 124.5 
25.245001003 33.750001341 121.5 25.245001003 33.885001346 121.5 25.245001003 34.290001363 123.5 
25.245001003 34.560001373 121.5 25.245001003 34.695001379 122 25.245001003 34.695001379 122.5 
25.245001003 52.920002103 110.5 25.245001003 53.055002108 110.5 25.245001003 53.190002114 110.5 
25.245001003 60.210002393 98 25.245001003 60.210002393 98.5 25.245001003 60.210002393 99 
25.245001003 60.210002393 103 25.245001003 60.750002414 81.5 25.245001003 60.885002419 77.5 
25.380001009 31.590001255 125 25.380001009 31.725001261 125 25.380001009 31.860001266 125 
25.380001009 31.995001271 125 25.380001009 32.130001277 124.5 25.380001009 32.265001282 124 
25.380001009 32.805001304 122.5 25.380001009 33.345001325 121.5 25.380001009 33.48000133 121.5 
25.380001009 33.885001346 121 25.380001009 34.020001352 121 25.380001009 34.695001379 121.5 
25.380001009 34.830001384 121.5 25.380001009 34.830001384 122 25.380001009 51.975002065 111 
25.380001009 52.110002071 111 25.380001009 52.245002076 111 25.380001009 52.380002081 111 
25.380001009 52.515002087 110.5 25.380001009 52.515002087 111 25.380001009 52.650002092 110.5 
25.380001009 52.785002097 110.5 25.380001009 60.210002393 99.5 25.380001009 60.210002393 103 
25.380001009 60.750002414 81.5 25.380001009 61.020002425 78 25.515001014 32.265001282 124 
25.515001014 33.615001336 121 25.515001014 33.750001341 121 25.515001014 33.885001346 121 
25.515001014 34.020001352 121 25.515001014 34.155001357 121 25.515001014 34.290001363 121 
25.515001014 34.425001368 121 25.515001014 34.695001379 121 25.515001014 34.965001389 121.5 
25.515001014 51.435002044 111.5 25.515001014 51.570002049 111.5 25.515001014 51.705002055 111.5 
25.515001014 51.84000206 111.5 25.515001014 51.975002065 111 25.515001014 52.110002071 111 
25.515001014 52.245002076 111 25.515001014 52.380002081 111 25.515001014 60.345002398 100 
25.515001014 60.345002398 100.5 25.515001014 60.345002398 102.5 25.515001014 60.750002414 81.5 
25.515001014 61.020002425 77.5 25.515001014 61.020002425 78 25.650001019 32.265001282 123.5 
25.650001019 33.48000133 121 25.650001019 33.615001336 121 25.650001019 33.750001341 121 
25.650001019 33.885001346 121 25.650001019 34.020001352 121 25.650001019 34.155001357 121 
25.650001019 34.425001368 120.5 25.650001019 34.560001373 121 25.650001019 34.830001384 121 
25.650001019 51.165002033 111.5 25.650001019 51.300002038 111.5 25.650001019 60.345002398 100.5 
25.650001019 60.345002398 101 25.650001019 60.345002398 102 25.650001019 60.750002414 81.5 
25.650001019 61.020002425 78 25.650001019 61.15500243 77 25.785001025 32.265001282 123.5 
25.785001025 34.290001363 120.5 25.785001025 34.560001373 120.5 25.785001025 34.695001379 120.5 
25.785001025 34.965001389 121 25.785001025 51.030002028 112 25.785001025 51.165002033 112 
25.785001025 51.300002038 112 25.785001025 60.345002398 101 25.785001025 60.345002398 101.5 
25.785001025 60.750002414 81.5 25.785001025 61.15500243 78.5 25.785001025 61.290002435 77 
25.92000103 32.265001282 123.5 25.92000103 34.425001368 120.5 25.92000103 34.560001373 120.5 
25.92000103 34.695001379 120.5 25.92000103 35.100001395 121 25.92000103 35.2350014 121 
25.92000103 50.760002017 112 25.92000103 50.895002022 112 25.92000103 51.435002044 112 
25.92000103 60.885002419 82 25.92000103 61.15500243 78.5 25.92000103 61.290002435 76.5 
[...]
CELL_DATA 4085
SCALARS angle%0A[rad] double
LOOKUP_TABLE default
0 0.87258870887 1.0322881683 0.80631608995 0.75152358087 0.23580934936 0.80631608995 0.78068330718 0.67135715578 
0.62820663026 0.57050674059 0.59909398119 0.49320726682 0.45970943797 0.50187448065 0.40745961202 0.46681635988 0.59271441189 
0.88059770551 0.50660329789 0.48052389637 0.70513933638 0.42158415139 0.39592020905 0.37915157744 0.36227165403 0.39748106844 
0.30409960895 0.30409960895 0.2850263435 0.62911963832 0.61108183525 0.62097253459 0.47894714792 0.87939290661 0.56184358678 
0.83542172412 0.8146984481 0.38008480807 0.76988216776 0.24818831344 0.3311284759 0.37302525193 0.31305047254 0.37199851529 
0.29618133987 0.39873751942 0.20254144447 0.63998712765 0.47704637411 0.41240136673 0.36529968001 0.55599544736 0.5304624748 
0.50422638627 0.46314054339 0.26345078252 0.19870029324 0.12830660782 0.39645319848 0.36915623408 0.83203932673 0.81748501886 
0.80411271894 0.77053270397 0.81075766621 0.82785232872 0.81350211409 0.78003779184 0.76674463714 0.7775890287 0.7510955571 
0.74264253914 0.76326946216 0.75940575968 0.75641173747 0.7588290491 0.79413485555 0.83491444418 0.84796297112 0.63116832667 
0.6443544999 0.67135464102 0.40251244144 0.48261458623 0.54940546814 0.21139765564 0.32132106987 0.49308016558 0.74598784597 
0.94616702783 0.2133698913 0.19158733921 0.23388973061 0.36841051205 0.35538800232 0.34169250302 0.32638999368 0.30332572945 
0.29820504679 0.29820504679 0.28848019912 0.27265117232 0.45888498686 0.34313107589 0.29255528761 0.27362124182 0.23698982664 
0.2125004777 0.16572815199 0.15852978531 0.030356168512 0.13691075317 0.14662246673 0.17833644687 0.14521161761 0.15523992741 
0.032433910791 0.064211900579 0.10861721052 0.13383791383 0.16660822836 0.19962579865 0.075351520214 0.10999180153 0.12790326357 
0.14724890464 0.14724890464 0.15884890304 0.18511877188 0.28801358344 0.031062443046 0.061301145145 1.4901161194e-08 0.11407068917 
0.13332686394 0.17070854385 0.19031269201 0.18392403926 0.13610292954 0.15230470912 0.16622317474 0.15230276066 0.18931803135 
0.16798212964 0.18404175271 0.13274463613 0 0.13274463613 0.16480227954 0.16480227954 0.058378437296 0.037859740513 
0.045343317615 0.062979547371 0.11648239095 0.16572815199 0.25841425958 0.3049316406 0.21015723982 0.18862675112 0.17819364136 
0.23698982664 0.33569746486 0.32596822911 0.38079580426 0.18737690625 0.1545076464 0.14809912412 0.15985143838 0.18075603031 
0.32014294405 0.141387772 0.16834765581 0.20048081695 0.30655176489 0.32872711472 0.10769129482 0.14219578818 0.15876088277 
0.18691503631 0.048647830665 0.047709908233 0.092379510029 0.18830657846 0.23027385117 0.27645932581 0.23329975088 0.27036876844 
0.32807116918 0.37168070822 0.41460757404 0.10913530889 0.1957763401 0.38662402622 0.76530602869 0.31016188002 0.22034764987 
0.38395256981 0.40431393082 0.43116550491 0.50536106525 0.50124677914 0.52738074977 0.42790686215 0.45442643203 0.50539200938 
0.5988784676 0.62886102009 0.57121395087 0.64319440673 0.60851999421 0.58505429509 0.63704797995 0.54824359747 0.47041019715 
0.4960219033 0.40685526701 0.33531083177 0.27990367826 0.19533198784 0.18438510553 0.21315350645 0.094000103633 0.058219427122 
1.3074506302 0.065499730413 0.12022936266 0.27470661363 0.24075049098 0.087215662815 0.028174259048 0.082508234299 0.099195405753 
0.1193390193 0.18223811764 0.22348175824 0.30625315602 0.39407808812 0.56228771996 0.82074491851 0.72943738079 0.62038213206 
0.47905256689 0.31017346964 0.10133858885 0.16145571598 0.44967867937 0.48258691511 0.40920803696 0.38802204613 0.36794771941 
0.34995366544 0.33594374833 0.32656153423 0.28458671303 0.29191959709 0.070719211494 0.074935797602 0.070501493779 0.088433295482 
0.11339852768 0.10776985396 0.050378927854 0.11374613158 0.22454112 0.52783816461 0.52776843801 0.43005077702 0.32830951026 
0.34021090242 0.41758420441 0.15599190179 1.854974075 1.8508993721 1.8499664115 1.8526768194 1.828796581 1.8378107422 
1.430479367 1.4319846237 1.4422846643 1.3450781701 1.3813081077 0.55483599185 0.5309240368 0.50881272382 0.33910808312 
0.32477777834 1.6186560262 0.76451501414 0.90712926478 0.32751856546 0.31421626118 0.4516116598 0.4516116598 0.43512131038 
0.41972337566 0.40531941064 0.11575110168 0.073685020271 0.68070918087 0.65999185493 0.64032440872 0.62164312209 0.52181129088 
0.52181129088 0.10688721322 0.03309717184 0.05378761814 0.091126338804 0.12179562538 0.25915167275 0.29162819371 0.32725696807 
0.36633258904 0.40917312994 0.45610947811 0.51943519609 0.58689562945 0.4482217608 0.53301073722 0.3064772567 0.40263110139 
0.53573465703 0.71383779993 0.93936015296 0.20168151548 0.20887756761 0.53199722984 0.53953610297 0.55449003918 0.58419236899 
0.53953610297 0.58419236899 0.7678430753 1.3575225745 1.394891882 1.4378663175 1.2701178527 0.9907587875 1.0319331623 
0.94860192539 0.55423092678 0.5219831774 0.41315559489 0.48157339307 0.37421709628 0.67752540384 0.79698787069 0.79805734975 
0.80246655642 0.7624687986 0.89742662683 1.2917969337 1.3127453531 1.3051034678 1.3376182518 1.3376182518 1.3486559965 
1.2007305733 1.2052919166 1.1936816244 1.1951149541 1.1075533651 1.1075533651 0.47078792304 0.042236518306 0.64791315023 
0.96675090107 0.97354147314 0.97406933802 0.98525769298 0.83952702869 1.1292498174 1.1688547278 1.1903921719 1.2026139058 
0.73427285243 0.35429076825 0.3981719762 0.40261854299 0.42344601129 0.43495118771 0.37992586851 0.38234728104 0.91450696749 
1.4140589896 1.618901982 1.6710149862 1.7160193141 1.532660615 1.5009617433 1.5454406149 0.95357562811 0.32042243665 
0.26799861096 0.91435370926 0.64017304632 0.81501488063 0.44787781886 0.55635025333 0.52236808159 0.96504653279 1.4356312123 
1.7763732116 2.07577465 2.1085254616 1.8552090484 1.4579532749 1.6563193552 1.9398953349 2.0592079211 0.28709089492 
0.38148574372 0.28709089492 0.39919661521 0.70148570234 0.72243331834 1.5529216045 1.5529216045 0.37264627532 0.6924931826 
0.91065241315 0.25856158014 0.18902025212 0.17985349979 0.17073521148 1.7519925157 1.7731479041 1.8283766524 1.6659891513 
1.3587588643 0.94158135423 0.76178987337 0.99443596686 0.96248657007 0.2850263435 1.1550285177 1.1643520482 1.1773853193 
1.1794300208 1.2171179471 1.2336191618 1.1964706815 1.1280006267 1.0819892895 0.99944455912 0.91624021935 0.80260898409 
0.69313317799 0.48645258405 0.15465168708 0.14921150317 0.34248761717 0.38126202536 0.39841034048 0.40225442177 0.12937349969 
0.11802316211 0.11345924921 0.10975111326 0.34226307692 0.29462675669 0.27421174582 0.27595909838 0.26612239907 0.32981181614 
0.31376555103 0.40448454095 0.52218902139 0.49698112376 0.48132851078 0.45655858893 0.43189244778 0.41823089907 0.74409869812 
0.43555973385 0.49347634824 0.61576463576 0.78183604879 0.90761724631 0.25711775996 0.14910127665 0.21632013369 0.26359001278 
0.25492064709 0.23986012737 0.31944764416 0.29891429868 0.38396345784 0.40419745447 0.15165203467 0.14932681029 0.17594947678 
0.19957664167 0.13170362988 0.13749783725 0.14413412756 0.18517844248 0.25642183536 0.1955550794 0.10788570249 0.095722588436 
0.040969107734 0.12269492785 0.119617106 0.27688341727 0.28449837718 0.2678645333 0.2467330789 0.25051482796 0.55360756995 
0.40626892475 0.31340109848 0.21657625684 0.1884932202 0.70220218627 0.71718109907 0.69168526772 0.74175105246 0.16511225367 
0.73320350828 0.71995997435 0.81087703347 0.78649298446 0.76324023373 0.14160294889 0.25181791241 0.19967928172 0.0768803878 
0.045315241894 0.38632050903 0.33182266127 0.27478921248 0.1840372981 0.10822445969 0.032501431832 0.17060340642 0.21130830576 
0.63188688877 0.63190462379 0.611755041 0.22615750236 0.16710951309 0.16608554249 0.20255607005 0.20255607005 0.28922062091 
0.068774493779 0.077441671115 0.069482883822 0.13483419959 0.38616817392 0.3038187151 0.26701570029 0.25227119969 0.12975378147 
0.10922878421 0.12682796931 0.13068149712 0.21681313609 0.16227203451 0.14152534092 0.14833134299 0.10062098001 0.071187919528 
0.051075101338 0.036474037579 0.038753456537 0.1861695523 0.15106648947 0.22422302917 0.31249334627 0.40199100605 0.54109858315 
0.65306539452 0.76642087261 0.87058290257 0.83838445617 0.78215669191 0.54598816642 0.50884696061 0.37481909631 0.47931699784 
0.87562214396 1.0252944919 0.72152576906 0.69608758233 0.70574534684 0.49449482534 0.38739888858 0.3701715271 0.34362190627 
0.31541423792 0.57911354586 0.5500211608 0.48798879934 0.40590823902 0.34645198599 0.2867594361 0.28538938095 0.25812095273 
0.17531328785 0.10694443528 0.058120761257 0.030786270617 0.074850115953 0.069184815883 0.03616414082 0.026275481901 0.040455550222 
0.13452702032 0.10757715378 0.082523416962 0 1.2060444979 1.1272264844 0.41925153159 0.98381532287 0.86326404765 
0.46086448043 0.35496510796 0.92247197329 0.84699026005 0.81798548325 0.15058466831 0.37268484915 0.23401611846 0.12531863146 
0.92247197329 0.54508668539 1.213489427 0.36391607724 0.47998239691 0.65284171519 0.64017323932 1.2294749534 1.0409541807 
1.1239784987 1.0072766707 1.1422279379 0.39561229101 0.50616947658 1.1984337715 1.1422279379 1.1111859876 1.1782913965 
1.1796492374 1.1675356974 1.1825123544 1.2117752836 1.3410550357 0.067837669543 0.23012019743 1.2357972925 1.2380785468 
1.181459324 1.1499581156 0.94395539798 1.3089288134 0.97378387096 0.7632526047 0.68049648103 0.067670241051 0.28139354715 
0.831454079 0.98120443206 0.936405615 0.12219992749 0.34571208844 0.68049648103 0.094602974107 0.21736754426 0.2912913336 
0.23926031745 0.93155069324 1.1283014924 0.89437612343 0.33620213471 0.49903733935 0.27278336854 0.58571570147 0.55380497149 
1.2208716938 0.67047300403 0.34966852941 0.94502249392 0.6117666849 0.55428485245 0.32352897404 0.50763309787 2.2877830304 
2.3072450762 2.2943957606 1.9254659723 1.7188012879 1.5854059802 0.96685726943 0.50226363711 0.67092692241 0.61129532407 
0.6521340063 0.62917958134 0.60521655411 0.57014163327 0.54288067965 0.51447674073 0.60699079291 0.54258813365 0.48019596316 
0.4111807345 0.34441408568 0.36826144698 0.41892739218 0.22781760542 0.10386143937 0.2767896252 0.14103300916 0.045639144636 
0.24249351075 0.59284794183 0.44553175092 0.51924263889 0.5971782594 0.46764587688 0.36650896757 1.1651068116 0.36553198286 
0.48266188259 0.68635311791 0.51861841501 0.7018874623 0.86044412796 1.5794643576 0.24197976465 0.63726046029 0.47609079465 
0.47846977842 0.26784965659 0.40254114977 0.49244917365 0.39524176601 0.29948826675 0 0.58800260355 1.4901161194e-08 
0.58800260355 0.71070475238 0.40116563565 0.74941301291 1.100706251 1.7367603424 1.8510239531 1.38937319 1.3375460387 
1.1272264844 0.9515821148 1.090229335 1.090229335 0.17169236731 0.77481411119 0.75261096218 0.66063882165 0.66063882165 
0.7307962571 0.60457464516 0.53515883954 0.99704336485 1.727695773 1.8187089055 1.8212478363 0.29682950595 0.091025651683 
0.86539835476 0.83998647546 0.81568163013 1.6175250936 0.60819634322 1.6966868198 1.7778098303 0.70002001177 1.5391795388 
2.2767127601 0.40361701401 0.87258870887 0.83294083415 0.795957866 0.7614713525 0.72931095132 1.931237354 1.9603703249 
0.9515821148 1.0276325522 2.0076139437 0.87255722562 1.2944678292 0.80631608995 0.70390406208 0.57050674059 0.73752509327 
0.52303453666 0.9515821148 1.5702277465 1.4974938548 0.67752540384 0.65523020693 1.1745058769 0.92516513938 0.7688317876 
0.80083634444 0.91394196027 0.65445995341 0.56887902055 0.47091450214 0.19739555985 0.463647609 0.3217505544 0.24497866313 
1.65281477 0.5777906955 0.45295380668 0.25687869395 0.21785597518 0.15007254662 0.094585255607 0.059928157497 0.076219594234 
0.19739555985 0.65189208732 0.54604304419 0.66165920284 0.59814776106 0.83385678862 0.81466015989 0.6215180084 0.54460571877 
1.6931368985 1.7975006549 1.7522555824 1.0106412009 0.70273895317 0.49832364518 0 1.3158046696 1.4147024378 
0.49698112376 0.46656095527 0.43941866162 0.6319066907 1.0106044401 1.2868010163 1.090229335 0 0 
0.72844810022 0.65990894643 0.73346689378 0.70220687004 0 0.19739555985 0.79997145284 0.59830527353 0.46805996266 
0.3422497229 0.18835198731 0.044470551433 0.10073732739 0.2195459423 0.32457256862 0.43998190711 0.55498213241 0.668052762 
0.8970956911 0.9714876787 1.950745526 1.7258718878 1.6813687674 1.8204696008 1.7375058203 1.655156991 1.6187715816 
1.5829849225 1.5482557031 1.4653033461 1.4318412039 1.3655462804 1.3354840841 1.2057088625 1.0516108313 1.107625275 
1.1406054864 0.3217505544 0.34793561285 1.0674753689 0.7853981634 0.61128599362 0.51099656383 0.70742917608 0.6834304087 
0.73435362435 1.1577745397 0.66076716243 0.68227148405 0.66062218406 0.39447606667 0.37132082999 1.0981760775 0.38163585336 
0.31615979952 0.59136151919 0.86171841557 1.0548688145 1.0130002886 0.63819948196 0.97320937218 1.0716478564 0.63819948196 
0.47033740813 0.50964612857 0.57265298042 0.60362559092 1.0372946877 0.67242328904 0.65748504362 0.64049445739 0.54491028249 
0.52013916109 0.49347877472 0.4673936397 0.55468683363 0.62684880658 0.71060638806 0.60787959891 0.45829412557 0.54025975033 
0.29778076113 0.39345261879 0.48150601167 0.53734449368 0.43615902662 0.55705388027 0.57321884586 0.58151411776 0.47115033923 
0.41135775024 0.40681476143 0.41095743325 0.29857816986 0.30800302312 0.2801806364 0.25398513226 0.23020096235 0.23020096235 
0.19508418162 0.085027651266 0.069909959548 0.069909959548 0.16508965205 0.15329351189 0.16641492693 0.17724649441 0.22358588692 
0.2647905711 0.29275156739 0.27885381399 0.27787935191 0.22979915355 0.20621970045 0.12687539788 0.10377333885 0.098812870792 
0.09964735043 0.16415440724 0.1308558409 0.017093381954 0.071402084625 0.080866691138 0.096617343543 0.11801890206 0.1446137247 
0.16616491871 0.23094131007 0.2014265553 0.16641492693 0.10703166095 0.12941890672 0.14983671155 0.29318010874 0.40951486142 
0.54786362833 0.65239646709 0.92222410242 0.63678732415 0.71939763022 0.32601551314 0.41084459626 0.63658076703 0.83237883343 
0.46094111506 0.48586677062 1.0042807212 0.59681079795 0.63342567773 0.73039020187 0.98357531342 0.48586677062 0.95693124417 
1.7482564457 0.40757256785 0.72308025111 0.74828584449 0.75881219949 0.75189029725 0.72006210648 0.7175997888 0.7163642889 
0.70861588262 0.74034134984 0.68079168231 0.40059371538 0.44392727938 0.34332233982 2.553229457 0.11463343565 0.14566061751 
0.11722225212 1.4901161194e-08 0.05508137828 0.106709057 0.15941852328 0.18599393779 0.16688421948 0.083075676592 0.024987552009 
0.071824300619 0.085863772863 0.10023347257 0.17590114793 0.3879045799 0.60119236476 0.85991154019 0.74985270895 0.61554788902 
1.3587383245 1.3356587493 1.307536296 0.67537922437 0.55650006844 0.42135498845 0.31535753403 0.34976949345 0.21805575364 
0.14284113966 0.3242483371 0.29857933524 0.2878978571 0.27738216988 0.24850861171 0.26829719741 0.25451704336 1.8751488841 
1.8921139505 1.9367703043 1.9911748832 2.0337236751 1.6752232782 0.63341719512 0.5806274994 2.0905624422 1.5670064634 
0.98095538869 0.60939767171 0.2488359607 0.1905337692 1.1592102289 1.1592102289 1.4308570585 1.7446120837 1.7534507984 
1.7517491729 1.7669385052 1.4322992433 1.475349156 1.4954840992 1.5301909504 1.5842860988 1.5750670502 1.6892271577 
1.847423152 2.0526336187 2.5105392776 0.30763922923 0.15340205817 0.065468867549 0.11215984198 0.22322872789 0.13336768301 
0.43340190975 0.37474243709 0.3452244656 0.2503019698 0.5601242073 0.55262054878 0.52801274395 0.49472485298 0.51216754993 
0.44681819676 0.41704405983 0.32333499449 2.4588414847 2.4865162027 2.5207105069 2.5645252378 2.5631415505 2.4306767425 
2.2827202324 2.0110878727 1.4994083089 0.89935752252 0.4030969678 0.29807074098 0.14402018741 0.075230464617 0.32043347774 
0.41946763808 0.36960506107 0.4720040706 0.49954270215 0.42185115313 0.54117111985 0.52489049493 0.50048012497 0.56545313277 
0.52476348075 0.4665831111 0.59229829557 0.53360582574 0.49160089142 0.58606496353 0.54427224852 0.50323118622 0.433372032 
0.39609293966 0.3631972099 0.52396211158 0.49099486656 0.46316061217 0.32763747616 0.31480833226 0.45496366522 0.41990412317 
0.22453323048 0.064982389044 0.063597833847 0.22107770804 0.42372495007 0.66854112946 0.28206309933 0.30199746518 0.26017597669 
0.18576941315 0.19456186006 0.21232313538 0.21920758534 0.24595400132 0.36645071575 0.39327632683 0.4224389138 0.45407075248 
0.48830610805 0.52527653097 0.57577679562 0.93936880934 0.97647532772 1.0228104596 0.86771131556 0.79826877931 0.56902639752 
0.61794399169 0.73680203345 0.59032971883 0.6622565776 0.5297175911 0.53150998744 0.5336466349 0.5362143621 0.53932794091 
0.54314121229 0.53337859247 0.49387716556 0.39149518265 0.39646857635 0.40339282219 0.37620728182 0.3773775184 0.36913425591 
0.37501110459 0.27357776294 0.27357776294 0.27357776294 0.27357776294 0.34996039173 0.27556245469 0.28316299082 0.32739094277 
0.92799761342 0.79839439286 0.89672874118 1.0071782617 1.0191413443 1.0014831357 0.9736196687 0.9544993894 0.93428811101 
0.91290772161 0.98435175571 1.5295201197 1.1139359068 1.0839408874 1.0548688145 0.98592119258 0.9387000173 0.88377601199 
1.0272846392 1.1560085404 1.2966076248 1.3116064442 1.2266443378 1.1326733675 0.94325436708 0.93828109381 1.5137662391 
1.0345920146 0.55660725798 1.4197858988 1.3266327547 1.2544328014 0.79145507621 0.37858144766 0.24480862861 2.0909129712 
2.3208504655 2.2887089266 0.28955913829 0.46834430756 0.34800705034 0.32976338623 0.69095828836 0.65154060676 0.6454909348 
0.6060454017 0.57244062655 0.52474239537 0.59153799664 0.78459376566 0.73198192932 0.42294232359 0.51621912391 0.62237614788 
0.76454371254 0.74014567529 1.4812351715 1.477265641 1.4772968154 1.6108766284 1.4994286205 1.2605033397 0.73013244069 
0.069508096507 0.051237167403 0.032882879806 0.013697773373 0.22577768932 0.21450302466 0.20885510996 0.21241810322 0.39437646127 
0.42622964056 0.50946201759 0.7602245792 0.83848412249 0.81464252616 0.8145597999 0.99823486338 1.0170438623 1.0375278208 
1.0596687507 1.2245669044 1.2548171536 1.2765631328 1.2365137765 1.0501755355 0.63202198581 0.2865948269 0.25032390546 
0.20782868576 0.1561053254 0.80032360292 0.773293392 0.74768138264 0.83848412249 0.81417316045 0.81366824497 1.1746405449 
1.105951723 0.76988216776 0.35984786238 0.11297293153 0.72538863064 0.74768959263 0.58715959517 0.52098597555 0.60226038436 
0.57525924947 0.79964297348 1.0665812833 0.72538863064 0.72538863064 1.0329487477 0.70432188316 0.90343951002 0.90278852768 
0.83931717528 0.78542481218 0.77113991469 0.71120605845 0.66132285067 0.58640819328 0.55467898119 0.48549099188 0.5499867479 
0.47228138332 0.39490506748 0.34428165144 0.30292463198 0.2728157685 0.26251054885 0.59895779039 0.54984352633 0.54010643068 
0.56860794915 0.81341234638 0.74523560241 0.74257381981 0.74169284016 0.53655460038 0.48966108659 0.48393180577 0.49612718369 
0.36915623408 0.35825538527 0.34795433497 0.33820692087 0.29423456511 0.29423456511 0.28605144172 0.25877089196 0.25877089196 
0.2310906672 0.2310906672 0.2310906672 0.22471116841 0.19739555985 0.36254423726 0.1418970546 0.11379200714 0.11379200714 
0.085505293678 0.085505293678 0.083141231888 0.56788796556 0.59591800552 0.51914611425 0.55165498253 0.49951079059 0.53895858093 
0.45491420659 0.50249730987 0.4448073082 0.50645747884 0.44610554894 0.3706412263 0.44610554894 0.35691193635 0.20487671704 
0.52662727143 0.63306065289 0.45430208669 0.42662749313 0.399515494 0.36120375549 0.33473683732 0.60452547417 0.47654245764 
0.48146966825 0.34153175251 0.36914741892 0.46430563863 0.14230357747 0.48059833222 0.38161039372 0.49646677855 0.34048617411 
0.12128606904 0.74891179476 0.7062124014 0.68297986331 0.63998712765 0.42357404904 0.61528258456 0.57242779278 0.55599544736 
0.5304624748 0.50422638627 0.46314054339 0.11462781331 0.46314054339 0.58794979467 0.57157876175 0.55627744789 0.54250881213 