# vtk DataFile Version 5.1
vtk output
ASCII
DATASET POLYDATA
POINTS 2736 double
6.4800002575 36.585001454 65.5 6.4800002575 36.720001459 65.5 6.4800002575 36.855001464 65 
6.4800002575 36.855001464 65.5 6.4800002575 36.99000147 65 6.4800002575 36.99000147 65.5 
6.6150002629 37.125001475 65 6.6150002629 37.125001475 65.5 6.6150002629 37.260001481 65 
6.6150002629 37.260001481 65.5 6.6150002629 37.260001481 66 6.6150002629 37.395001486 65 
6.6150002629 37.395001486 65.5 6.7500002682 37.395001486 66 6.7500002682 37.395001486 67.5 
6.7500002682 37.530001491 65.5 6.7500002682 37.665001497 65.5 6.7500002682 37.800001502 65 
6.8850002736 37.395001486 67.5 6.8850002736 37.530001491 66 6.8850002736 37.530001491 66.5 
6.8850002736 37.665001497 65.5 6.8850002736 37.665001497 66.5 6.8850002736 37.800001502 65 
6.8850002736 37.800001502 66.5 6.8850002736 37.935001507 65 6.8850002736 38.070001513 65 
6.8850002736 38.205001518 64.5 6.8850002736 38.340001523 64.5 6.8850002736 38.475001529 64.5 
6.8850002736 38.610001534 64 6.8850002736 38.74500154 64 7.0200002789 37.395001486 67 
7.0200002789 37.395001486 67.5 7.0200002789 37.395001486 68 7.0200002789 37.395001486 68.5 
7.0200002789 37.395001486 69 7.0200002789 37.395001486 69.5 7.0200002789 37.395001486 70 
7.0200002789 37.395001486 72.5 7.0200002789 37.530001491 66 7.0200002789 37.530001491 66.5 
7.0200002789 37.530001491 67 7.0200002789 37.530001491 72.5 7.0200002789 37.665001497 72.5 
7.0200002789 37.800001502 72.5 7.0200002789 37.935001507 73 7.0200002789 38.070001513 73 
7.0200002789 38.205001518 73 7.0200002789 38.340001523 73 7.0200002789 38.475001529 73 
7.0200002789 38.610001534 64 7.0200002789 38.610001534 73 7.0200002789 38.74500154 64 
7.0200002789 38.74500154 73 7.0200002789 38.880001545 63.5 7.0200002789 38.880001545 64 
7.0200002789 38.880001545 73 7.0200002789 39.01500155 64 7.0200002789 39.01500155 73 
7.0200002789 39.150001556 73 7.0200002789 39.285001561 73 7.1550002843 30.375001207 77 
7.1550002843 30.510001212 77 7.1550002843 30.645001218 77 7.1550002843 30.780001223 77.5 
7.1550002843 30.915001228 77.5 7.1550002843 31.050001234 77.5 7.1550002843 31.185001239 77.5 
7.1550002843 31.320001245 77.5 7.1550002843 31.45500125 78 7.1550002843 34.425001368 78 
7.1550002843 34.560001373 78 7.1550002843 34.695001379 78 7.1550002843 34.830001384 78 
7.1550002843 35.505001411 77 7.1550002843 35.640001416 76.5 7.1550002843 35.775001422 76 
7.1550002843 35.910001427 76 7.1550002843 36.045001432 75.5 7.1550002843 36.180001438 75 
7.1550002843 36.180001438 75.5 7.1550002843 36.315001443 75 7.1550002843 36.315001443 75.5 
7.1550002843 36.450001448 74.5 7.1550002843 36.585001454 74 7.1550002843 36.720001459 73.5 
7.1550002843 36.855001464 73 7.1550002843 36.99000147 72.5 7.1550002843 37.125001475 71.5 
7.1550002843 37.125001475 72 7.1550002843 37.125001475 72.5 7.1550002843 37.260001481 70.5 
7.1550002843 37.260001481 71 7.1550002843 37.260001481 72.5 7.1550002843 37.530001491 66 
7.1550002843 37.530001491 66.5 7.1550002843 39.01500155 63 7.1550002843 39.150001556 63 
7.1550002843 39.285001561 63 7.1550002843 39.285001561 73 7.1550002843 39.420001566 63 
7.1550002843 39.555001572 62.5 7.1550002843 39.690001577 62.5 7.1550002843 39.825001583 62.5 
7.1550002843 39.960001588 62.5 7.1550002843 40.095001593 62 7.1550002843 40.230001599 62 
7.1550002843 40.365001604 62 7.2900002897 28.350001127 76 7.2900002897 28.485001132 76 
7.2900002897 28.620001137 76 7.2900002897 28.755001143 76 7.2900002897 28.890001148 76 
7.2900002897 29.025001153 76 7.2900002897 29.160001159 76.5 7.2900002897 29.295001164 76.5 
7.2900002897 29.430001169 76.5 7.2900002897 29.565001175 76.5 7.2900002897 29.70000118 76.5 
7.2900002897 29.835001186 77 7.2900002897 29.970001191 77 7.2900002897 30.105001196 77 
7.2900002897 30.240001202 77 7.2900002897 31.590001255 78 7.2900002897 31.725001261 78 
7.2900002897 31.860001266 78 7.2900002897 31.995001271 78 7.2900002897 32.130001277 78 
7.2900002897 32.265001282 78 7.2900002897 32.400001287 78 7.2900002897 32.535001293 78.5 
7.2900002897 32.535001293 85 7.2900002897 32.670001298 79 7.2900002897 32.670001298 84.5 
7.2900002897 32.805001304 79 7.2900002897 32.805001304 84.5 7.2900002897 32.940001309 79 
7.2900002897 32.940001309 84 7.2900002897 33.075001314 79 7.2900002897 33.075001314 84 
7.2900002897 33.21000132 79 7.2900002897 33.345001325 79 7.2900002897 33.48000133 79 
7.2900002897 33.615001336 79 7.2900002897 33.750001341 79 7.2900002897 33.885001346 79.5 
7.2900002897 34.020001352 79 7.2900002897 34.020001352 79.5 7.2900002897 34.155001357 78.5 
7.2900002897 34.155001357 79.5 7.2900002897 34.290001363 78.5 7.2900002897 34.965001389 77.5 
7.2900002897 35.100001395 77.5 7.2900002897 35.2350014 77 7.2900002897 35.370001405 77 
7.2900002897 39.420001566 72.5 7.2900002897 39.555001572 72.5 7.2900002897 39.690001577 72.5 
7.2900002897 39.825001583 72.5 7.2900002897 39.960001588 72.5 7.2900002897 40.095001593 72.5 
7.2900002897 40.230001599 61.5 7.2900002897 40.230001599 72.5 7.2900002897 40.365001604 61.5 
7.2900002897 40.365001604 72.5 7.2900002897 40.500001609 61.5 7.2900002897 40.500001609 62 
7.2900002897 40.500001609 72.5 7.2900002897 40.635001615 72.5 7.2900002897 40.77000162 72.5 
7.2900002897 40.905001625 72.5 7.2900002897 41.040001631 72.5 7.2900002897 41.175001636 72.5 
7.2900002897 41.310001642 72.5 7.2900002897 41.445001647 72.5 7.2900002897 41.580001652 72.5 
7.2900002897 41.715001658 72.5 7.2900002897 41.850001663 72.5 7.425000295 28.080001116 76 
7.425000295 28.215001121 76 7.425000295 31.995001271 86.5 7.425000295 32.130001277 86.5 
7.425000295 32.265001282 86 7.425000295 32.400001287 85.5 7.425000295 32.535001293 85 
7.425000295 32.670001298 84.5 7.425000295 32.805001304 84.5 7.425000295 32.940001309 84 
7.425000295 33.21000132 83.5 7.425000295 33.345001325 83 7.425000295 33.48000133 82.5 
7.425000295 33.615001336 81.5 7.425000295 33.615001336 82 7.425000295 33.750001341 80 
7.425000295 33.750001341 80.5 7.425000295 33.750001341 81 7.425000295 33.885001346 80 
7.425000295 40.635001615 61.5 7.425000295 40.77000162 61.5 7.425000295 40.905001625 61 
7.425000295 40.905001625 61.5 7.425000295 41.040001631 61 7.425000295 41.040001631 61.5 
7.425000295 41.985001668 72 7.5600003004 27.540001094 76 7.5600003004 27.6750011 76 
7.5600003004 27.810001105 76 7.5600003004 27.94500111 76 7.5600003004 31.050001234 90 
7.5600003004 31.185001239 89.5 7.5600003004 31.320001245 89 7.5600003004 31.45500125 88.5 
7.5600003004 31.590001255 88 7.5600003004 31.725001261 87.5 7.5600003004 31.860001266 87 
7.5600003004 41.175001636 61 7.5600003004 41.310001642 61 7.5600003004 41.445001647 60.5 
7.5600003004 41.580001652 60 7.5600003004 42.120001674 72 7.5600003004 42.255001679 72 
7.6950003058 29.835001186 93 7.6950003058 29.970001191 93 7.6950003058 30.105001196 92.5 
7.6950003058 30.240001202 92.5 7.6950003058 30.375001207 92 7.6950003058 30.510001212 91.5 
7.6950003058 30.645001218 91 7.6950003058 30.780001223 90.5 7.6950003058 30.915001228 90.5 
7.6950003058 41.715001658 59.5 7.6950003058 41.850001663 59.5 7.6950003058 41.985001668 59 
7.6950003058 41.985001668 59.5 7.6950003058 42.390001684 72 7.6950003058 42.52500169 72 
7.8300003111 28.080001116 54 7.8300003111 29.565001175 94 7.8300003111 29.70000118 93.5 
7.8300003111 29.835001186 93 7.8300003111 29.970001191 93 7.8300003111 42.120001674 58.5 
7.8300003111 42.120001674 59 7.8300003111 42.255001679 58 7.8300003111 42.255001679 58.5 
7.9650003165 27.810001105 54 7.9650003165 27.94500111 54 7.9650003165 28.215001121 53.5 
7.9650003165 28.350001127 53.5 7.9650003165 28.485001132 53.5 7.9650003165 28.620001137 53.5 
7.9650003165 28.755001143 53.5 7.9650003165 28.755001143 96 7.9650003165 28.890001148 53.5 
7.9650003165 28.890001148 96 7.9650003165 29.025001153 95.5 7.9650003165 29.160001159 95 
7.9650003165 29.295001164 94.5 7.9650003165 29.430001169 94.5 7.9650003165 42.390001684 56.5 
7.9650003165 42.390001684 57 7.9650003165 42.390001684 57.5 7.9650003165 42.390001684 58 
8.1000003219 27.270001084 54 8.1000003219 27.405001089 54 8.1000003219 27.540001094 54 
8.1000003219 27.6750011 54 8.1000003219 28.080001116 98 8.1000003219 28.215001121 97.5 
8.1000003219 28.350001127 97 8.1000003219 28.485001132 96.5 8.1000003219 28.620001137 96.5 
8.1000003219 41.985001668 53.5 8.1000003219 41.985001668 54 8.1000003219 42.120001674 54.5 
8.1000003219 42.120001674 55 8.1000003219 42.255001679 55.5 8.1000003219 42.255001679 56 
8.2350003272 26.865001068 54 8.2350003272 27.000001073 54 8.2350003272 27.135001078 54 
8.2350003272 27.405001089 99 8.2350003272 27.540001094 99 8.2350003272 27.6750011 99 
8.2350003272 27.810001105 98.5 8.2350003272 27.94500111 98.5 8.2350003272 41.445001647 51.5 
8.2350003272 41.580001652 51.5 8.2350003272 41.580001652 52 8.2350003272 41.715001658 52 
8.2350003272 41.715001658 52.5 8.2350003272 41.850001663 52.5 8.2350003272 41.850001663 53 
8.2350003272 41.985001668 53.5 8.2350003272 42.120001674 54 8.2350003272 42.120001674 54.5 
8.2350003272 42.120001674 55 8.3700003326 26.730001062 53.5 8.3700003326 27.000001073 100 
8.3700003326 27.135001078 99.5 8.3700003326 27.270001084 99.5 8.3700003326 41.310001642 51 
8.3700003326 41.310001642 51.5 8.3700003326 41.445001647 51.5 8.505000338 26.460001051 100.5 
8.505000338 26.595001057 53.5 8.505000338 26.595001057 100.5 8.505000338 26.730001062 100.5 
8.505000338 26.865001068 100 8.505000338 41.040001631 50 8.505000338 41.175001636 50.5 
8.6400003433 26.055001035 101.5 8.6400003433 26.190001041 101 8.6400003433 26.325001046 101 
8.6400003433 26.460001051 53.5 8.6400003433 40.905001625 49.5 8.7750003487 25.515001014 102 
8.7750003487 25.650001019 101.5 8.7750003487 25.785001025 101.5 8.7750003487 25.92000103 101.5 
8.7750003487 26.325001046 53.5 8.7750003487 40.905001625 49 8.9100003541 25.245001003 102.5 
[...]
CELL_DATA 2735
SCALARS angle%0A[rad] double
LOOKUP_TABLE default
0 0.2443136173 0.10917183442 0.16153531888 0.16614389188 0.24399770026 0.2443136173 0.27830765454 0.17392636353 
0.30410829669 1.0780833547 0.13973075214 0.33102129826 0.17488548229 1.0836566063 1.0513658711 0.31656172871 0.25310991406 
0.13321419103 0.061673842122 0.32261207494 0.09967689714 0.11831860354 0.47770571284 1.0142802132 0.17646890451 0.15724513256 
0.18061398236 0.92676386456 0.44442376286 0.40326576182 0.36509383454 0.57045813337 0.53617555048 0.43502932738 0.39669278057 
0.34154584746 0.29286143229 0.20205084369 0.12259625281 0.065208852812 0.14488176566 0.35054715648 0.5167922778 0.74119637587 
0.67611973382 0.64169100586 0.61372621823 0.65151944113 0.50375490611 1.6058625774 0.41658082528 0.3969387667 0.30278871118 
0.28876762432 0.2609184778 0.58122664274 0.26257313923 0.23374318087 0.79886681516 0.93469909973 1.2141306411 0.60010763081 
0.57198321593 0.80997604199 1.0861216121 0.83976836067 0.94911356443 0.5348810204 0.5348810204 0.69380384151 1.0131348482 
1.1015005281 1.0090236384 0.91285019973 1.0267498916 0.69262367077 0.64445838405 0.49356324841 0.5719550662 0.36270006789 
1.5106464428 1.4358643831 1.4000764017 1.3667964608 0.20870171365 1.0303543009 0.99120894531 0.95397101164 0.36599844125 
0.90322108798 0.24244383777 0.22793094814 0.41925153159 1.942876866 1.9589639337 1.9745677664 2.0170550194 2.0918632419 
2.1002409621 2.1122505902 2.2072006905 2.1885970839 2.1707590695 2.1935347268 2.1104822444 2.0813996606 2.0791831088 
1.9583109208 1.9295034102 1.8400335021 1.5718050344 1.5556470788 1.3329519546 1.3304365181 1.267004646 1.1176996569 
1.1376712133 1.0861124124 1.1168985457 0.95672358986 0.96677028076 0.98475359116 0.94404474691 0.94991737223 1.026835804 
0.94060246028 0.95828458722 0.89174139488 0.53937573693 0.73462461218 0.73058160874 0.47745662499 0.41275905853 0.39436122501 
0.59617292668 0.6312999448 0.56002046893 0.63706316977 0.50186656539 0.85867203787 0.36867099572 0.025483689464 0.12841869692 
0.69843363643 0.68769588843 0.68769588843 0.18491221451 0.1354449394 0.22981898689 0.18199143326 0.10240510116 0.080960418016 
0.03223737395 0.032216433381 0.038833072164 0.12748705684 0.10584027699 0.10982335515 0.119889428 0.086859432183 0.13139494034 
0.27524416017 0.2289074191 0.26009539582 0.18840872098 0.56524793386 0.52571465862 0.56286190978 0.5348810204 0.092140849178 
0.29288337104 0.28270564551 0.25502921629 0.22144512018 0.22859864036 0.25345978755 0.6502888951 0.55713405902 0.55713405902 
0.55713405902 0.5629995308 0.5629995308 0.70256158672 1.0416053085 0.41671023457 0.40549561471 0.38058820796 0.4022199246 
0.37804211864 0.36875465565 0.35510678941 0.32491203587 0.30409960895 0.30409960895 0.25116551412 0.049671881228 0.077103239012 
0.11991166735 0.17548328566 0.37127831141 0.34226814774 0.23827788166 0.25570391499 0.32654233638 0.26366259694 0.22262417867 
0.24160758298 0.11500833236 0.080841946369 0.017136147428 0.03903037963 0.52571465862 0.53714705955 0.50280129261 0.50929832206 
0.54273959709 0.50460676745 1.4320477413 1.3945273882 1.4404897416 1.441864612 1.4465568707 1.310148458 1.236910197 
1.1683550497 1.0962039789 1.1166461843 1.0581368563 0.98465873236 0.9501388997 0.91147957566 0.87894946281 0.83387114171 
0.77706037475 0.73428408873 0.71473129967 0.75969875423 0.84721913507 0.86531987244 1.1078895784 0.96470030166 0.97769220571 
1.0062383246 1.0327187394 1.0258749166 1.0210800832 1.0183354753 0.92009210381 0.90610583254 0.885122208 0.86367919802 
0.87851344983 0.85678157204 0.91058101948 0.90773724777 0.90631796492 0.9173768664 0.71236381209 0.72981363123 0.72460227496 
0.74245755998 0.44407404697 0.49575103098 0.49046295224 0.51896653678 0.51999665884 0.4728483821 0.48154518716 0.20839586645 
0.22360885295 0.23811073973 0.16232440288 0.16232440288 0.25626989505 0.27846546274 0.30182561481 0.3398992024 0.42375603307 
0.29410970472 0.33015899947 0.40076915048 0.50212414442 0.48273621026 0.59009452856 0.62194165588 0.71893015501 0.6529344591 
0.68459041055 0.70529942978 0.73404052185 0.74539980194 0.76789527848 0.78993318044 0.79994296715 0.82224108209 0.67766949864 
0.64993347111 0.58864024765 0.51930130986 0.45400071443 0.41110522522 0.38126207483 0.31609726503 0.31645036549 0.26521903272 
0.24552077413 0.22042891339 0.22481823312 0.23419634182 0.1826390808 0.11140868468 0.093243152981 0.065936125841 0.062247109347 
0.11764875833 0.12546225257 0.13586530219 0.094481641824 0.15105030989 0.13163231804 0.17356266313 0.18800299935 0.20922937427 
0.25526709359 0.21208900863 0.26315716645 0.2318215812 0.14955648445 0.11096024514 0.056955706459 0.095723343263 0.10672903631 
0.13385049403 0.1187671281 0.051917859706 0.078508162164 0.13049959539 0.11755440689 0 0.056259201859 0.082312545837 
0.082312545837 0.12274176376 0.10114352414 0.056962346194 0.032578190224 0.032578190224 0.083135748947 0.077619397199 0.056060968387 
0.050170025917 0.042953631358 0.025645989529 0.052860856781 0.081582337542 0.10910168486 0.071371263146 0.071371263146 0.057435341872 
0.084453298403 0.087914829749 0.11701763968 0.12359125524 0.18138244565 0.16980164769 0.18706693432 0.213214385 0.25579741551 
0.15451351108 0.2887022443 0.18537853753 0.2823382736 0.28391623298 0.33929969833 0.3753672157 0.3166579139 0.36588684018 
0.30206332661 0.23841936196 0.17077730296 0.20575811398 0.12676092765 0.15775184959 0.074179458379 0.091739191384 0.083154999527 
0.065721490138 0.23877215485 0.1922505726 0.18418769672 0.25880564241 0.23328410007 0.17769475628 0.13391616125 0.11168216783 
0.25569423887 0.24817610495 0.21512152041 0.22323537955 0.19205233284 0.21433725897 0.18864862103 0.16278140806 0.13681347087 
0.11086736701 0.085174925961 0.30810994611 0.097044096901 0.2164722586 0.99134869412 1.5512138201 1.5197309505 1.486571098 
1.4816741189 1.6003309041 1.5796194833 1.5497366814 1.4911395003 0.67696022931 1.4816741189 1.4522101265 1.4229514995 
1.5327417985 0.51083717653 0.62701657784 0.47943979669 1.5170244902 0.31831028201 0.45898731191 0.87583677346 0.71667134893 
0.54720784237 1.4102490991 1.3638945738 0.26118458993 0.3676250032 1.3070844823 0.30726018041 1.3071976539 0.36844064909 
1.4633686237 0.47905256689 0.34500004087 0.24130102174 0.1286664795 0.36004940545 0.19481837326 0.17344765038 0.34628834858 
1.0759009872 1.2265825388 1.2793395214 1.2153173612 0.10680547756 0.34872771693 0.96607009258 1.0501476108 1.2254405599 
1.1991567166 0.2164722586 1.1761288195 0.19054454292 1.1327586136 1.1056093129 0.96375045483 0.75845506628 0.72226052513 
0.69392951886 0.61731727731 0.3853019214 0.98500607054 0.9905337797 0.96674694664 1.1266015356 1.1870670863 1.1434242851 
1.1166648207 1.0660806128 1.0361077362 0.90361065034 0.85407334603 0.75932181345 0.72636957934 0.80436438042 0.74151700364 
0.71093917879 0.68098012402 0.60323650821 0.57197519122 0.54166566303 0.51570130072 0.40733699092 0.53876966406 0.50225334203 
0.46655868018 0.35355825339 0.32225187713 0.37874576227 1.3324166632 1.6246656004 0.35017589177 0.59013617932 0.55873672997 
0.52878021022 0.42730971712 0.42206252192 0.39693658627 0.98827936 0.94395539798 0.16081089757 0.05087147759 0.13995701393 
0.35099081088 0.32434424536 0.20282364316 0.19003166403 0.17693779354 0.1639127353 0.46533641021 0.4532463632 0.42032740996 
0.38760445593 0.28280622477 0.56157965641 0.56687118187 0.57387152523 0.58338030242 0.59670626009 1.5977505182 1.5977016937 
0.37404986398 0.91940142941 0.84590175002 0.28792615803 0.36324071935 0.32002978871 0.61608975632 0.55513190944 0.076839283823 
1.053402095 0.19455776509 0.9957955508 0.50330463046 0.49977248163 0.45060041602 0.55616025303 0.52660523832 0.51036178985 
0.49500917262 0.099519397152 0.20802365864 0.055862268729 0.4926096014 0.51250239757 0.33201836262 0.44069846331 0.31376901399 
0.29211468517 0.27192374523 0.25330320131 0.14971160945 0.14771612984 0.15039620777 0.18727501023 0.21073005657 0.23698549943 
0.26658339292 0.38871994443 0.42454038833 0.46672396881 0.51756505342 0.55921085709 0.63243197818 0.72230985275 0.43366584222 
0.2618168837 0.38495520514 0.36779530336 0.28800406344 0.15806740624 0.16484383483 0.20984723304 0.25518317272 0.30123820383 
0.36864088244 0.37738666398 0.39474260713 0.42224091156 0.40132171423 0.51523710153 0.45616294292 0.46148521719 0.39820655015 
0.38968586133 0.38968586133 0.38264134815 0.39883197805 0.52578736584 0.38768069812 0.3745657279 0.4259552622 0.43198712201 
0.35125962919 0.33468534179 0.33416320898 0.21517693487 0.23688592958 0.23432797749 0.24137871918 0.26749038028 0.11042979023 
0.036663539657 0.087330014331 0.14966273137 0.28485098091 0.33167758485 0.37321048067 0.42628209805 0.26067624544 0.16225007918 
0.26943663868 0.088404253246 0.25418428309 0.47289209917 0.14518141864 0.20162506997 0.1494938446 0.032516871803 0.079590828077 
0.0479108447 0.11169507119 0.27485967592 0.12633584886 1.090229335 1.0334651136 0.31457561303 0.42064339525 0.4817767077 
0.4731641193 0.42014622304 0.45925436185 0.28998287682 0.41910704929 0.33828259397 0.29553438274 0.29315608584 0.2708011257 
0.21518882362 0.31965080851 0.32928615781 0.21318807457 0.19548252612 0.18622805969 0.23958518953 0.31953435291 1.3607219015 
0.036507377559 0.12538926913 0.08844551231 0.067357327033 0.17793649419 0.23639398627 0.32622198937 0.29317076329 0.27113645654 
0.16637231583 0.093796797339 0.19229403557 0.15615398149 0.13418873322 0.097044096901 0.076219594234 0.038165226606 0.038165226606 
0.26505775269 0.15048339443 0.24267116418 0.038165226606 0.088433295482 0.15048339443 0.076219594234 0.076219594234 0.076219594234 
0.076219594234 0.15760634395 0.15340548689 0.038165226606 0.02699344294 0.2086005204 0.38429210927 0.060300643582 0.28305420585 
0.2086005204 0.26901545301 0.17061961929 0.34616766755 0.076219594234 0.054611574808 0.053869273626 0.055521441212 0.081053717099 
0.096600871062 0.097044096901 0.097044096901 0.13280214949 0.30810994611 0.13280214949 0.30810994611 0.097044096901 0.19054454292 
0.23531224273 0.21500001779 0.38140488296 0.48784391097 0.53208145369 0.68791535467 0.47943979669 0.23531224273 0.084639198886 
0.1754453996 0.52129203866 0.13681347087 0.13418873322 0.30779225882 0.42510169052 0.10780076307 0.080706476945 0.013450160607 
0.044817573449 0.084638093885 0.2164722586 0.060300643582 0.24267116418 0.2032944227 0.35017589177 0.053947605782 0.40461962372 
1.2323595224 1.3745044881 1.3501399623 1.3182468922 1.2815668779 1.2572077394 1.2242049864 1.2189935562 1.3350365971 
1.4623232359 1.4669495707 1.4201203712 1.3936165956 1.3679493507 1.3524693223 1.4669771191 1.4051875595 1.3804367434 
1.0500120102 1.0398335336 0.90336393582 0.82802519367 0.74404160452 0.55221784304 0.49921315616 0.44890634284 0.32439144278 
0.26878207976 0.21781337954 0.17458763175 0.1536494913 0.168085717 0.20216565837 0.26217202516 0.57912300867 0.58241014655 
0.5867669468 0.67359097423 0.66651426296 0.66411585528 0.78896357413 0.90484118628 0.94208887174 1.0864892869 0.59717665809 
0.5693131911 0.54041950027 0.42274406394 0.21433725897 0.30449718276 0.40633706118 0.28952858238 0.32449199828 0.27551120047 
0.25529491835 0.30943076714 0.24988171488 0.12621765125 0.31281722365 0.22413432759 0.20452812247 0.080823550303 0.52327832213 
0.49394136892 0.1597809151 1.2258129616 0.19966378087 0.14006635212 0.14813278917 0.16661468247 0.16501408116 0.14006635212 
0.15717739602 0.11761524572 0.29746631204 0.2097917894 0.20967920781 0.32658660225 0.28853223462 0.37641802843 1.3845954757 
0.1524750131 0.58888743597 1.4906962467 1.4633686237 1.4368004839 0.019929112202 0.18491259586 0.15977682722 0.16060473573 
0.16060473573 0.13681347087 0.037788137762 0.55731483907 1.4379642882 0.11973368626 0.1851852401 1.4104212533 1.3641652117 
0.54662011513 0.33858351222 0.16278140806 0.14438762946 0.12016592259 0.060300643582 1.5707963268 1.5438421354 1.5707963268 
1.5438421354 0.2153603753 0.060300643582 1.6244326355 0.55731483907 1.4379642882 0.42695997199 0.2416104747 0.52020411262 
1.3839997076 1.3638945738 1.3842651986 0.2382227218 0.38843149975 0.36189117792 0.053947605782 1.597633783 0.1924254786 
1.6244326355 0.17886028564 0.21170444861 1.4638305533 0.21048719227 0.19915007867 0.15724852099 0.12761102093 0.16610522462 
0.1253185272 1.3839997076 1.3352513371 1.5168683361 1.4366558942 0.36665419431 0.15520541673 1.597633783 0.41758420441 
1.4900020926 1.4900898499 1.4633686237 1.7049367594 1.6902252575 0.064676540544 0.097044096901 0.097044096901 0.13418873322 
0.42718343996 1.516848721 0.095767606994 0.10730973391 0.088603308663 0.25662927438 1.5977505182 1.5707963268 0.32872661563 
0.54967428512 1.5977799408 0.24751214295 0.30141709415 0.58474270352 0.42718343996 1.516848721 1.4899727765 1.4899727765 
0.11784320105 0.17610697709 0.099763040006 0.026750893396 0.3193632151 0.5057358238 0.11338128936 1.5707963268 1.5977799408 
1.5707963268 0.55437798789 1.5707963268 1.5707963268 1.6245681634 1.6511546128 0.55144718592 1.5169270532 1.4900898499 
0.4710068735 1.5169270532 0.20217813834 0.28853223462 0.16287404906 0.21645076719 0.75168676772 1.6770052848 0.25452831887 
0.18515563786 0.22553598957 1.5438421354 0.37949663681 1.5977016937 1.5977016937 0.44804536463 0.56913231992 1.5438127128 
1.6302986168 0.5923982948 1.678030833 1.5170244902 1.4902354786 1.4902354786 1.4638305533 1.5438909599 0.15840012132 
0.20783176403 0.20783176403 1.6774195371 1.6508964069 1.4635618205 0.17119215909 0.17119215909 1.5438421354 1.5169270532 
0.13418873322 1.5977505182 1.5707963268 0.45323975611 0.60916251866 0.19560893438 0.060300643582 0.25723918036 0.2164722586 
1.651357175 0.13224159792 0.10624574709 0.20257377721 0.25985335059 0.058910677785 0.15156375429 0.11405416391 0.097044096901 
0.57817869461 1.5977799408 0.58093201168 1.6246656004 1.437040431 0.11405416391 1.7042184519 1.5168683361 1.5168683361 
1.4902354786 1.4904380408 0.32658660225 0.28853223462 0.026750893396 0.13224159792 0.23469724787 0.23469724787 0.25949601906 
0.37570076917 1.437040431 0.25985335059 0.35037895883 0.33452790404 0.24267116418 0.32204213335 1.5977505182 0.28443799012 
0.63708057713 1.7042184519 1.516848721 1.4900020926 1.4900020926 0.15048339443 0.32658660225 1.6515028037 0.28853223462 
0.19054454292 0.056517905811 0.18835430889 1.3850549299 1.3850549299 0.059866843129 0.14438762946 0.55570757197 1.5438028839 
0.29552561143 0.056212353191 1.6777621003 1.6777621003 1.4899727765 1.6246656004 0.23278335739 0.29810314132 1.4900898499 
0.25069766495 0.12040394191 0.12943105714 0.059337533416 0.42695997199 1.5977505182 0.13065901236 0.20249286931 0.09710664601 
1.4633686237 1.4641731165 0.31876237265 0.11052671408 0.060300643582 0.18237076843 0.24782393644 0.2460511813 0.28008094562 
0.33607496154 0.31598961328 0.27446821773 0.2726581087 0.25901273923 0.27105504105 0.31717330155 0.37831722591 0.30590298072 
0.22148878827 0.29928825218 0.47828517998 0.30895276105 0.097505274373 0.15914209654 0.14006635212 0.20249286931 0.26334970357 
0.36624993365 0.26371184446 0.38964603329 0.29191959709 0.32622198937 0.29317076329 0.16145571598 0.13672460469 0.28992201392 
0.11168216783 0.23860816111 0.16731457699 0.14070238601 0.20249286931 0.33197753504 0.44802897452 1.4902354786 1.2836984004 
0.13350784495 1.3225298296 0.34384286767 1.3856406889 0.29572834349 0.12700784722 1.3225298296 1.3353716374 0.16731457699 
1.288903786 1.3124641753 0.26334970357 0.062630183653 1.3364120074 1.3225298296 1.2969247598 1.2595218747 1.2852250121 
1.3103398707 0.30450827475 0.15289656271 0.24314875603 0.38513281541 0.26253414225 1.2237166896 1.2602882364 0.11773105592 
0.39862325695 0.28305076762 1.2253324464 0.17974354089 0.19623828001 0.14549794683 0.079502868471 1.1883628404 0.14549794683 
0.14549794683 0.23791247936 0.083797060509 0.091326360177 0.33551082983 0.057682542102 0.15079403257 0.17610320782 0.36475182886 
0.11773105592 0.026923267457 0.026923267457 0.58054094799 1.7788714011 0.12538926913 0.054054193799 0.22557533465 1.3389152703 
0.24584420599 0.54886534302 1.7788714011 0.081219202317 0.054054193799 0.2084117689 1.3639076406 0.077414667206 1.3415268121 
0.057733598508 0.074511040933 0.77582274144 1.7816721339 1.7524277142 1.742855323 0.89562349725 1.714610934 0.88084471302 
0.87557841572 0.074511040933 0.27498054671 1.3652098817 0.067238702028 1.6753595382 1.4156536344 1.3903157105 0.31572481713 
1.6493438621 1.3707674348 0.10767189669 1.2928728888 1.3448435114 1.3177277825 0.47224769036 0.12022936266 0.27783669054 
0.15606264912 0.13108832663 1.2556647839 0.60974428732 0.16046358621 1.6482885887 1.2556647839 0.12605731896 0.12605731896 
0.16622652672 0.15149713165 1.2567629622 1.4684137225 0.079152454582 0.071371263146 1.2553447793 0.790712775 0.60579203502 
0.4306466716 0.51308328107 0.68750503083 0.7619332286 0.84213840772 0.703417772 0.55146390345 0.41439062961 0.055862268729 
0.049615334774 0.2469046959 0.049615334774 0.22135060689 0.25543103811 0.28105234199 0.18360980992 0.15190227495 0.21433725897 
0.19408855418 0.099355463558 0.32942375233 0.54520055931 0.16913163262 0.14006635212 0.24837771318 0.50701411087 0.21170444861 
0.1754453996 0.15217202363 0.26930601105 0.26769539705 0.058910677785 0.23265268364 0.13418873322 0.27924887287 1.5444110899 
1.5707963268 0.34388031724 0.41905158268 0.058910677785 0.13418873322 0.36934746652 1.6508964069 0.42299785198 0.27591301776 
0.37570076917 1.4641731165 0.23265268364 1.6244326355 1.4111043729 1.437040431 0.20501859465 0.18864862103 0.39349045195 
1.6777621003 0.39575016907 0.39349045195 0.20501859465 0.42695997199 0.19548252612 0.1094327283 1.6777621003 0.14788977712 
0.23961985082 0.3785622214 1.4641731165 0.15093627074 0.30955223317 1.6505841766 0.38189872798 0.11399172115 0.19120703483 
0.24868086344 0.12926745432 0.36857687296 1.4650707699 1.4116110221 0.14671026192 0.12966177454 0.13213022582 0.11723193303 
1.6030559995 1.7866003451 1.7695968188 1.786009525 1.656505976 1.7182650435 1.8339330108 1.7751527466 1.7223044812 
0.10912177255 0.11926657963 0.066553874201 0.057277412688 0.063461946778 0.062459512768 0.099519397152 0.20643103578 1.2820940825 
0.049615334774 0.049615334774 0.049615334774 0.065016090873 0.10451613061 0.11913632475 0.15315879208 0.086561767714 0.049615334774 
0.14882823424 0.10667325237 0.11508487102 0.057435341872 0.071371263146 0.2850263435 0.2850263435 0.3348133463 0.52203426869 
0.53822581613 0.51535021567 1.2813313958 0.69842237511 0.67561330451 1.8183626784 1.9701361716 2.1215206523 2.1555727311 
2.1908647984 2.2683989061 2.2638334079 2.2111525815 0.57779240273 0.5237837916 0.48019979453 0.40718772269 0.74545235446 
2.1457291459 2.1039819471 2.0588182535 2.0097153829 2.0677852934 2.1862127975 2.1537158191 2.0103986446 2.1431357045 
0.38473275703 0.24731827331 0.17093674689 0.32560620865 0.4867578745 0.39591620726 0.67463383012 0.90855905283 0.87553286405 
0.82582272097 0.74978603481 0.72715899998 0.66824641409 0.97006925158 0.98546625458 0.98509363613 0.96823750038 0.93118017237 
0.83842025006 0.83176617598 0.79848559789 0.69152403089 0.66192959282 1.0466042978 0.40601622588 1.0759009872 1.240585974 
1.2153993594 1.1726207902 1.0477033133 1.040775058 1.0325784608 0.97957571344 0.97718917333 0.89335501708 0.92202117315 
0.86389406157 0.80335109262 0.63879345258 0.68674948097 0.78504037704 0.74934218503 1.5239699488 1.2615978752 1.3708849298 
1.4488398622 1.223999373 0.89345021631 0.95740092868 1.706945815 1.2559066832 0.97800330571 0.94775156596 1.2586979373 
1.1136814793 1.4941715981 1.1955216543 1.0505200672 1.1686692449 1.2432321587 1.6373133889 1.6332625528 1.4692277658 
1.6615356518 1.5171583253 1.435477725 0.85747888812 0.69692678364 0.61074234294 0.59682264801 0.72566340231 0.78414945385 
0.82956019167 0.88826567447 0.99574765718 0.95995269303 0.92558472564 0.88883046332 0.8025486579 0.77181475955 0.68040451731 