# vtk DataFile Version 5.1
vtk output
ASCII
DATASET POLYDATA
POINTS 6412 double
12.150000483 48.465001926 156.5 12.150000483 48.600001931 156.5 12.150000483 48.735001937 156.5 
12.150000483 48.870001942 156 12.150000483 49.005001947 156 12.150000483 49.140001953 156 
12.150000483 49.275001958 156 12.150000483 49.410001963 156 12.150000483 49.545001969 156 
12.150000483 49.680001974 155.5 12.150000483 49.815001979 155.5 12.150000483 49.950001985 155.5 
12.285000488 50.08500199 155.5 12.420000494 50.220001996 155.5 12.555000499 50.355002001 155.5 
12.555000499 50.490002006 155.5 12.690000504 50.625002012 155.5 12.82500051 50.760002017 156 
12.960000515 50.895002022 156.5 13.09500052 51.030002028 157 13.09500052 51.165002033 157 
13.230000526 51.300002038 157.5 13.365000531 51.435002044 158 13.500000536 51.570002049 158.5 
13.500000536 51.705002055 158.5 13.635000542 51.84000206 158.5 13.770000547 51.975002065 159 
13.905000553 52.110002071 159 14.040000558 52.245002076 159 14.040000558 52.380002081 159 
14.175000563 50.490002006 132 14.175000563 50.625002012 131.5 14.175000563 50.760002017 131.5 
14.175000563 50.895002022 131.5 14.175000563 51.030002028 131 14.175000563 51.165002033 130.5 
14.175000563 52.515002087 159 14.310000569 51.165002033 130.5 14.310000569 52.650002092 159.5 
14.445000574 51.300002038 130.5 14.445000574 52.785002097 159.5 14.580000579 51.435002044 130.5 
14.580000579 51.570002049 130.5 14.580000579 51.705002055 130.5 14.580000579 51.84000206 130.5 
14.580000579 52.920002103 159.5 14.715000585 51.975002065 130.5 14.715000585 53.055002108 159.5 
14.85000059 51.300002038 125 14.85000059 52.110002071 130 14.85000059 53.190002114 159.5 
14.985000595 51.435002044 125.5 14.985000595 52.245002076 129.5 14.985000595 53.325002119 159.5 
15.120000601 51.570002049 126 15.120000601 52.380002081 129 15.120000601 53.460002124 159.5 
15.255000606 51.705002055 126 15.255000606 52.515002087 129 15.255000606 53.59500213 159.5 
15.255000606 53.730002135 159.5 15.390000612 51.84000206 126.5 15.390000612 52.650002092 129 
15.390000612 53.86500214 160 15.525000617 51.975002065 126.5 15.525000617 52.110002071 127 
15.525000617 52.110002071 127.5 15.525000617 52.245002076 127.5 15.525000617 52.785002097 129 
15.525000617 54.000002146 160 15.660000622 51.975002065 126.5 15.660000622 52.380002081 127.5 
15.660000622 52.920002103 129 15.660000622 54.135002151 160 15.795000628 52.515002087 128 
15.795000628 53.055002108 129 15.795000628 54.270002156 160 15.930000633 52.650002092 128 
15.930000633 53.190002114 129 15.930000633 54.405002162 160 16.065000638 52.785002097 128 
16.065000638 53.325002119 129 16.065000638 54.540002167 160 16.200000644 52.920002103 128 
16.200000644 53.055002108 128 16.200000644 53.190002114 128 16.200000644 53.325002119 128 
16.200000644 53.460002124 128 16.200000644 53.460002124 129 16.200000644 54.675002173 160 
16.335000649 53.59500213 128.5 16.335000649 53.730002135 128.5 16.335000649 54.675002173 160 
16.470000654 53.86500214 128.5 16.470000654 54.810002178 160 16.60500066 54.000002146 128.5 
16.60500066 54.945002183 160 16.740000665 54.000002146 128.5 16.740000665 55.080002189 160 
16.875000671 54.000002146 128.5 16.875000671 55.215002194 160 17.010000676 54.000002146 128.5 
17.010000676 55.350002199 160 17.145000681 54.000002146 128.5 17.145000681 55.485002205 160 
17.280000687 54.000002146 128.5 17.280000687 55.485002205 160 17.415000692 54.135002151 128.5 
17.415000692 55.62000221 160 17.550000697 54.270002156 128.5 17.550000697 55.755002216 160 
17.685000703 54.405002162 128.5 17.685000703 54.540002167 128.5 17.685000703 54.675002173 129 
17.685000703 55.890002221 160 17.820000708 54.810002178 129 17.820000708 54.945002183 129 
17.820000708 55.080002189 129 17.820000708 56.025002226 160 17.955000713 55.215002194 129 
17.955000713 55.350002199 129 17.955000713 55.485002205 129 17.955000713 56.160002232 160 
18.090000719 55.62000221 129 18.090000719 56.295002237 160 18.225000724 55.62000221 129 
18.225000724 56.430002242 160 18.36000073 55.62000221 129 18.36000073 56.160002232 135.5 
18.36000073 56.565002248 160.5 18.495000735 55.62000221 128.5 18.495000735 55.755002216 129.5 
18.495000735 55.755002216 130 18.495000735 55.755002216 130.5 18.495000735 56.025002226 135 
18.495000735 56.295002237 136 18.495000735 56.700002253 160.5 18.63000074 55.62000221 128.5 
18.63000074 55.890002221 130.5 18.63000074 56.025002226 133 18.63000074 56.025002226 133.5 
18.63000074 56.025002226 134 18.63000074 56.025002226 134.5 18.63000074 56.430002242 136.5 
18.63000074 56.700002253 160.5 18.765000746 55.62000221 128.5 18.765000746 55.755002216 128 
18.765000746 55.890002221 131.5 18.765000746 55.890002221 132.5 18.765000746 56.025002226 131 
18.765000746 56.430002242 137 18.765000746 56.700002253 160.5 18.900000751 55.755002216 128.5 
18.900000751 55.890002221 126 18.900000751 55.890002221 127.5 18.900000751 55.890002221 132 
18.900000751 56.025002226 126.5 18.900000751 56.025002226 127 18.900000751 56.565002248 137.5 
18.900000751 56.700002253 160.5 19.035000756 55.755002216 125.5 19.035000756 56.700002253 138 
19.035000756 56.835002258 160.5 19.170000762 56.835002258 138.5 19.170000762 56.970002264 161 
19.305000767 56.970002264 138.5 19.305000767 57.105002269 161 19.440000772 56.970002264 138.5 
19.440000772 57.105002269 161 19.575000778 57.105002269 139 19.575000778 57.105002269 161 
19.575000778 57.240002275 161 19.710000783 57.105002269 139 19.710000783 57.37500228 161 
19.845000789 57.240002275 139 19.845000789 57.37500228 161 19.980000794 43.065001711 184 
19.980000794 43.200001717 184 19.980000794 43.335001722 184 19.980000794 43.470001727 184 
19.980000794 43.605001733 184 19.980000794 43.740001738 184 19.980000794 43.875001743 184 
19.980000794 44.010001749 184 19.980000794 44.145001754 184 19.980000794 57.37500228 139 
19.980000794 57.510002285 161 20.115000799 42.930001706 184 20.115000799 44.28000176 184 
20.115000799 57.510002285 139.5 20.115000799 57.645002291 161 20.250000805 42.795001701 184 
20.250000805 44.415001765 184 20.250000805 44.55000177 184 20.250000805 44.685001776 184 
20.250000805 44.820001781 184 20.250000805 44.955001786 184 20.250000805 45.090001792 184 
20.250000805 45.225001797 184 20.250000805 45.360001802 184 20.250000805 57.510002285 139.5 
20.250000805 57.645002291 161 20.38500081 42.255001679 184 20.38500081 42.390001684 184 
20.38500081 42.52500169 184 20.38500081 42.660001695 184 20.38500081 45.495001808 184 
20.38500081 57.645002291 139.5 20.38500081 57.780002296 161 20.520000815 42.52500169 184 
20.520000815 45.630001813 184 20.520000815 45.765001819 184 20.520000815 45.900001824 184 
20.520000815 46.710001856 183.5 20.520000815 46.845001861 183.5 20.520000815 46.980001867 183.5 
20.520000815 47.115001872 183.5 20.520000815 47.655001894 183 20.520000815 57.645002291 139.5 
20.520000815 57.780002296 161 20.655000821 42.390001684 184.5 20.655000821 46.035001829 184 
20.655000821 47.250001878 183.5 20.655000821 47.385001883 183.5 20.655000821 47.790001899 183 
20.655000821 57.780002296 139.5 20.655000821 57.915002301 161 20.790000826 42.255001679 184.5 
20.790000826 45.900001824 184 20.790000826 46.035001829 184 20.790000826 46.170001835 184 
20.790000826 46.30500184 184 20.790000826 46.440001845 184 20.790000826 46.575001851 184 
20.790000826 46.710001856 184 20.790000826 47.520001888 183.5 20.790000826 47.925001904 183 
20.790000826 57.780002296 140 20.790000826 58.050002307 161 20.925000831 42.255001679 184.5 
20.925000831 46.845001861 184 20.925000831 47.385001883 183.5 20.925000831 47.520001888 183.5 
20.925000831 47.655001894 183.5 20.925000831 48.06000191 183.5 20.925000831 57.915002301 140 
20.925000831 58.185002312 161 21.060000837 42.120001674 184.5 21.060000837 46.980001867 184 
21.060000837 47.520001888 183.5 21.060000837 47.655001894 183.5 21.060000837 47.790001899 183.5 
21.060000837 47.925001904 183.5 21.060000837 48.06000191 183.5 21.060000837 57.915002301 140 
21.060000837 58.185002312 161 21.195000842 41.715001658 184.5 21.195000842 41.850001663 184.5 
21.195000842 41.985001668 184.5 21.195000842 43.605001733 184.5 21.195000842 43.740001738 184.5 
21.195000842 47.115001872 184 21.195000842 47.250001878 184 21.195000842 47.385001883 184 
21.195000842 47.925001904 183.5 21.195000842 48.06000191 183.5 21.195000842 48.195001915 183.5 
21.195000842 58.050002307 140 21.195000842 58.320002317 161 21.330000848 41.580001652 184.5 
21.330000848 43.875001743 184.5 21.330000848 44.010001749 184.5 21.330000848 44.145001754 184.5 
21.330000848 44.28000176 184.5 21.330000848 44.415001765 184.5 21.330000848 44.55000177 184.5 
21.330000848 44.685001776 184.5 21.330000848 44.820001781 184.5 21.330000848 47.250001878 184 
21.330000848 47.385001883 184 21.330000848 47.520001888 184 21.330000848 47.655001894 184 
21.330000848 47.790001899 184 21.330000848 48.195001915 183.5 21.330000848 48.33000192 183.5 
21.330000848 58.050002307 140 21.330000848 58.320002317 161 21.465000853 41.580001652 184.5 
21.465000853 44.955001786 184.5 21.465000853 48.465001926 183.5 21.465000853 58.185002312 140.5 
21.465000853 58.455002323 161 21.600000858 41.580001652 184.5 21.600000858 45.090001792 184.5 
21.600000858 45.225001797 184.5 21.600000858 45.360001802 184.5 21.600000858 45.630001813 184.5 
21.600000858 48.33000192 183.5 21.600000858 48.465001926 183.5 21.600000858 48.600001931 183.5 
21.600000858 48.735001937 183.5 21.600000858 58.185002312 141 21.600000858 58.455002323 161 
21.735000864 41.580001652 184.5 21.735000864 45.495001808 184.5 21.735000864 45.765001819 184.5 
21.735000864 48.870001942 183.5 21.735000864 58.320002317 141 21.735000864 58.590002328 161.5 
21.870000869 41.580001652 184.5 21.870000869 45.630001813 184 21.870000869 45.630001813 184.5 
21.870000869 45.765001819 184 21.870000869 45.765001819 184.5 21.870000869 45.900001824 184 
[...]
CELL_DATA 6411
SCALARS angle%0A[rad] double
LOOKUP_TABLE default
0 0.88998747844 1.0756630467 0.88998747844 0 0.97704664166 0.88998747844 0.81366824497 0.14303192488 
0.38702723664 0.83798120525 0.79042322686 0.74695555357 0.069668031032 0.81366824497 0.77918704328 0.74695555357 0.71682132998 
0.20135166837 0.77256567916 0.74695555357 0.72268760139 0.69968544581 0.67787509472 1.0604062321 1.1206230649 0.95996758178 
0.8455392246 0.76983001294 0.68269430828 0.53640864986 0.41585341123 0.33762252884 1.5408187995 1.5033985604 1.4670926746 
1.4377996863 1.4059096267 1.3748708112 1.3432561213 1.3120974684 1.2814441569 1.2474190162 1.2143247922 1.1820263522 
0.71845737706 0.61373174112 0.55154937192 0.48733173215 0.42055570505 0.54002042249 0.47930458026 0.41423144102 0.34300855695 
0.15311740543 0.16605767263 0.15622408369 0.2266935972 0.56205288206 0.54381000468 0.40965265007 0.16047597494 0.11135937272 
0.31185714427 0.39708904068 0.38998317527 0.38998317527 0.38998317527 0.38998317527 0.38998317527 0.38998317527 0.62579651512 
0.27322170308 0.40856524712 0.52835943758 0.56885056033 0.56885056033 0.56885056033 0.56885056033 0.74163130732 0.73055993121 
0.73055993121 0.73055993121 0.67615970732 0.6465610037 0.16989535268 0.19074623188 0.24707239801 0.35152967357 0.41660523694 
0.57881334377 0.64448700327 0.67218294813 0.67218294813 0.69936722754 0.65419229903 0.58605340933 0.73151408498 0.7483686075 
0.74655665194 0.69581328142 0.6930547403 0.70952591551 0.72695639135 0.74548061458 0.76426877205 0.76426877205 0.77672556176 
0.80301072984 0.76923110866 0.3747970295 0.40465774492 0.46556963518 0.40341638168 0.40803236374 0.43868094413 0.47944037165 
0.49962110328 0.38797216303 0.38247999587 0.44454515771 0.46826103638 0.47893195893 0.47794799106 0.48606594164 0.36294835443 
0.3864769456 0.43069608774 0.43113672149 0.34495780902 0.33483393121 0.36632294137 0.38253897746 0.26113301843 0.30814461548 
0.40115443875 0.38253897746 0.23320073904 0.1896385925 0.18423544515 0.14035484591 0.23507037458 0 0.048104526822 
0.074233723285 0.085405886888 0.028822505571 0.028822505571 0.072547790164 0.13674110522 0.10083722631 0.050358774672 0.050146825686 
0.027037501524 0.045648993488 0.1193867434 0.094951885319 0.053041029288 0.056978941371 0.029538426615 0.10258775408 0.043796877516 
0.10935883272 0.15466501206 0.2935951988 0.30502277993 0.34289090808 0.43291615039 0.37661059847 0.47635715614 0.52560620936 
0.56561990128 0.61094857316 0.65244142681 0.72006101222 0.76506021037 0.74663483652 0.77224451749 0.78086116851 0.67814481395 
0.68018726915 0.57077964081 0.40324019673 0.32577177551 0.36732568769 0.2066960352 0.1937396907 0.18386184647 0.14016096672 
0.15832540837 0.18409231317 0.16505365048 0.20918903244 0.13996642438 0.13246413762 0.15117188778 0.058311850144 0.026421108232 
0.058311850144 0.10759479636 0.1745817186 0.20815918492 0.22264135182 0.18545392469 0.17210502996 0.16556323877 0.093327824344 
0.026421108232 0.041361949766 0.078300715439 0.13385874822 0.20519346456 0.23181527881 0.30504384228 0.4289280761 0.47054880464 
0.61024178517 0.1462120039 0.10424734274 0.085972949302 0.05450835738 0.038026843819 0.030122938768 0.062764734797 0.13686081664 
0.26505775269 0.026983613979 0.026954162841 0.060208740479 0.060208740479 0.060208740479 0.038137461491 0.038371850071 0.039309161977 
0.041484613207 0.045811991167 0.060230578582 0.078434468892 0.038165226606 0.038165226606 0.038165226606 0.084977746722 0.06002156835 
0.070804615656 0.084638093885 0.098273310729 0.11187405285 0.13346771446 0.1729182531 0.15074736538 0.18288829416 0.15612882983 
0.38324685877 0.55429417464 0.55129561475 0.7022183881 0.87064487879 1.0681181207 1.1377562445 1.2337432331 1.2073158331 
1.3168871354 1.2512723241 1.2099178969 1.1972940682 1.0069336327 1.0436161975 1.034070606 1.0261258939 0.81546373062 
0.7758803589 0.720952308 0.68176178188 0.5773890229 0.52422763719 0.40691594763 0.27795954536 0.23163050389 0.1765357557 
0.19104287754 0.22088902115 0.20515857181 0.2155477952 0.25022687283 0.33492098322 0.45534762896 0.48423657337 0.48423657337 
0.45144348278 0.34708916979 0.45453300117 0.45762828251 0.44709654344 0.28492308479 0.31341187487 0.32762036322 0.34227165195 
0.3638586707 0.19114742723 0.16392543033 0.13296026422 0.14111520644 0.11720322378 0.07357155625 0.07357155625 0.047325441921 
0.18184625813 0.18273900383 0.19550368298 0.25327661603 0.24436299901 0.19550368298 0.19550368298 0.18017651547 0.22164931971 
0.17990391049 0.14371780837 0.15593108527 0.11921413009 0.028494094223 0.1424055405 0.13442046876 0.1052280875 0.1052280875 
0.12093780375 0.15326754387 0.15330537807 0.16001990942 0.13367660805 0.10502466953 0.075765800041 0.03023841196 0.1361242836 
0.04624337763 0.075765800041 0.075765800041 0.061300536448 0.11171369552 0.18890078319 0.18890078319 0.16373658388 0.4272161457 
0.39744520622 0.29777235143 0.31431175752 0.31431175752 0.29440274708 0.29440274708 0.56508832458 0.53827204771 0.51837542373 
0.41685352499 0.41685352499 0.41507376614 0.30790104668 0.51837542373 0.43570253359 0.43197346634 0.43989678438 0.43989678438 
0.32974302634 0.31843314112 0.31545765535 0.20016960836 0.18244136002 0.21968811481 0.20186452417 0.18499677391 0.16901885036 
0.1759812054 0.20555630241 0.19969793709 0.17922757435 0.18343872858 0.18343872858 0.20410464979 0.20129821396 0.27595333429 
0.29071082608 0.42169880186 0.43575645729 0.44675396798 0.43078605513 0.45891240905 0.24384156153 0.30760246808 0.30497594821 
0.38881698343 0.40058742595 0.40542350653 0.41986096211 0.28534913481 0.30548509732 0.31842652104 0.30548509732 0.30548509732 
0.40247330852 0.41951750959 0.43105256871 0.19025653963 0.19025653963 0.19445139673 0.26648617764 0.28340458803 0.14202506624 
0.13489390704 0.10167500141 0.17104052443 0.13802786502 0.13215256659 0.12854052073 0.12700978379 0.27428508155 0.29025662108 
0.3073922968 0.13802786502 0.21758505265 0.19822571968 0.15037467278 0.14501354295 0.14071362517 0.33892611381 0.31870866218 
0.29957352039 0.19764726039 0.19764726039 0.19764726039 0.31898998551 0.30014494488 0.11749331076 0.11128604602 0.10644866304 
0.10014045308 0.066809893101 0.11992875027 0.13638691209 0.15425550809 0.17349410726 0.09913464242 0.099957632338 0.11516998993 
0.26789775466 0.30409437644 0.34089235175 0.37826162179 0.48209755698 0.48209755698 0.28193409624 0.31802387707 0.35458070609 
0.48178604828 0.48178604828 0.48178604828 0.48910614524 0.51425424702 0.51425424702 0.34891284252 0.34891284252 0.10476530738 
0.13802786502 0.33133666521 0.31433832675 0.29862121107 0.33280842635 0.59673399724 0.48395895537 0.4739421461 0.44100505981 
0.41970974322 0.38205229002 0.59360108052 0.48121213597 0.47137833988 0.4707724097 0.4707724097 0.34279911636 0.29311357214 
0.2552531355 0.16109058876 0.070899416699 0.065821474466 0.085470947027 0.1181767956 0.22339701778 0.2343608864 0.27835764638 
0.32309178171 0.46169283766 0.49224993227 0.5245429336 0.57107844694 0.62541088295 0.55800637906 0.71506999754 0.48895424604 
0.54408329939 0.60826016191 0.68764686167 0.78445773882 0.97210566116 0.78805170088 0.90584996908 0.77707761827 1.5281265549 
1.4605378749 1.3180579732 1.3056938033 1.0815251012 1.0679364408 0.88746687813 0.8882448733 0.86859209687 0.85242290208 
0.78736042805 0.66280942746 0.61749347083 0.39772174026 0.33819921321 0.28156612811 0.14006576424 0.11991421199 0.38014340421 
0.38361902626 0.6214316247 0.62441876474 0.50772983167 0.52268895598 0.64927098347 0.74003384321 0.76524955658 0.51106505482 
0.38000237853 0.47418693987 0.2387838611 0.2281256867 0.3254557174 0.35012976957 0.080915995978 0.13275285447 0.13275285447 
0.20539432896 0.24420666096 0.26036261502 0.15794542718 0.23612893258 0.11190315951 0.15840626721 0.19252776851 0.2583640669 
0.092796953428 0.14314435523 0.20585544843 0.27711351349 0.15978895449 0.18324193668 0.25804904577 0.095481576937 0.1667860944 
0.26979394143 0.30143648797 0.10489055653 0.13277403577 0.16558127847 0.08510642032 0.12351160396 0.16704536992 0.088199292355 
0.026234542339 0.15211450809 0.22303022558 0.027027774574 0.099859110741 0.26626146703 0.051675738811 0.26626146703 0.80963360226 
1.7741235451 1.5713899782 1.3943495416 1.4101166158 1.3102894375 1.3583636979 1.3898353914 1.4633335855 1.5231641918 
1.2115905296 1.0358466103 0.67331667177 0.78325253431 0.78417897422 0.764478187 0.72769806413 0.81856918225 0.82884121872 
0.81756079319 0.36528781831 0.3229550623 0.24188494623 0.23865369203 0.32772981354 0.54545511681 0.54545511681 0.54553331735 
0.93040334189 0.85500456239 0.83637116101 1.1243719286 1.1124363269 1.0936236758 0.98579121724 0.9694170499 0.94425389529 
0.94533197927 0.8424023745 1.1986102597 1.2063842306 1.2146978199 1.0655872623 1.091097133 1.1146064235 0.83646691641 
0.68621593966 0.68621593966 0.68621593966 0.68924891846 0.68169049384 0.23347998027 0.23460859279 0.22771032716 0.22771032716 
0.24660709618 0.24660709618 0.3145452274 0.3145452274 0.2730959791 0.4828057062 0.4666681263 0.46217485607 0.43955249182 
0.41805852533 0.30925936167 0.35458432133 0.32025672031 0.28625825744 0.21050482347 0.21050482347 0.21050482347 0.1897482454 
0.17428819411 0.17428819411 0.14306142294 0.18962493886 0.21371136591 0.21490516738 0.21706358811 0.26606743935 0.33697440021 
0.33697440021 0.33697440021 0.32149051017 0.32149051017 0.32486172146 0.31269533282 0.31269533282 0.32974511676 0.2064594075 
0.2064594075 0.2064594075 0.2064594075 0.20609702744 0.21920339993 0.31344697093 0.31344697093 0.4126625002 0.43746684689 
0.43746684689 0.43746684689 0.66236829269 0.66595968168 0.6697879393 0.66873589667 0.67315969857 0.67790610548 0.68301147668 
0.68851780413 0.69447383738 0.70093648663 0.70797258657 0.71566113297 0.7069175092 0.71301913584 0.70723919994 0.70351930414 
0.60840943893 0.62290978311 0.63935887282 0.65816624611 0.67986069624 0.6931648412 0.71167787401 0.73659284111 0.668755026 
0.71466522369 0.7742853236 0.85242261711 0.85583127403 0.99876727879 0 0 0.62503411121 0.30668924659 
0.30668924659 0.30668924659 0.30668924659 0.31861389035 0.16490537121 0.16490537121 0.16490537121 0.31806856857 0.31806856857 
0.24638081437 0.24342264955 0.19131818939 0.19131818939 0.21441169656 0.21130322055 0.15980517985 0.16447543655 0.17104052443 
0.17104052443 0.20367182866 0.29806061294 0.28418336732 0.23671578368 0.23719277303 0.38670252391 0.29949571605 0.29841285244 
0.29808012151 0.29867882635 0.24465181214 0.23633042019 0.23350328115 0.13508918603 0.15189590638 0.17223032177 0.20536615841 
0.24306403513 0.34507668353 0.38357721069 0.24752221954 0.27483403977 0.1872757889 0.56609422945 0.58839139015 0.54947064474 
0.56863145413 0.51276302011 0.50003586953 0.64226694195 0.61257507647 0.97988763039 0.98772171791 0.98980658471 0.84918386755 
0.64373070527 0.41751130113 0.34698203378 0.26727500589 0.26727500589 1.5637258089 1.5893070106 1.593464022 1.5637258089 
1.6729651752 1.7004775132 1.6908178402 1.6746523162 1.6041100618 1.6083876941 1.5824226644 1.5449472683 1.4436911074 
1.4355555249 1.4069150884 1.3804695006 1.2888356824 0.86890324826 0.84175487769 0.81818642217 0.43095451858 0.29892572323 
0.28752861791 0.38435133346 0.15116438262 0.16092392893 0.15668719348 0.19746183171 0.10240095442 0.31465925968 0.303858227 
0.31297257774 0.32582547194 0.32582547194 0.33365022744 0.33981602562 0.3193192282 0.30259457109 0.30120012902 0.27648898411 
0.2700450294 0.17659841339 0.17659841339 0.22216071772 0.2014272556 0.15095449969 0.10767656055 0.13227303011 0.13227303011 
0.2872681891 0.17243537152 0.14868868077 0.19448597359 0.21352275297 0.20598355271 0.31903833244 0.23690894235 0.23690894235 
0.2125647858 0.2125647858 0.13978753466 0.13750110926 0.13560913713 0.18388779033 0.17879713227 0.16014178595 0.16014178595 
0.18307992546 0.17438419186 0.18540632117 0.23378337882 0.23970277942 0.29848573145 0.31687232415 0.34288944315 0.53258599224 
0.55839179539 0.4326738271 0.4329186766 0.51900311719 0.55668643481 0.69096674469 0.76650786177 0.79913518542 0.83353461042 
0.89509731033 0.7123151546 0.73444547323 0.70795099136 0.70795099136 0.70795099136 0.40636611263 0.44403219481 0.44555021672 
0.23516539114 0.39603458001 0.59665094283 0.5563310155 0.85397391126 1.1865279061 1.4632595277 1.4447252434 1.4715704856 
1.5154258016 1.5708925192 1.6340383359 1.6495157731 1.6717257922 1.3431806344 1.3619299891 1.3947327455 1.4462109915 
1.444714543 1.5534171486 0.52095325359 0.49910185158 0.68421088846 0.70607378485 0.70607378485 0.81028935048 0.68903880401 
0.42902890336 0.52491536938 0.30764652574 0.32541053994 0.38969972687 0.41046242543 0.43233217661 0.41083198939 0.41377767882 
0.41377767882 0.41377767882 0.41377767882 0.24314887099 0.26484532773 0.26484532773 0.26484532773 0.2810942195 0.18820081101 
0.17923563203 0.17923563203 0.17923563203 0.14401535436 0.28986813473 0.27259143386 0.25665033522 0.16665042687 0.40825884915 
0.31671194053 0.47823535368 0.48969875263 0.46478049575 0.45963221654 0.45443989391 0.44924006089 0.42692816489 0.54905044563 
0.54554627336 0.54210735247 0.53879461303 0.518381863 0.47186828082 0.36906184185 0.3480713536 0.34265700933 0.33814804 
0.30884532357 0.28942958299 0.2765906936 0.11705229305 0.12528139586 0.147817199 0.1853927147 0.13164807804 0.16883341292 
0.3612352175 0.47452042997 0.62504909172 0.80576221688 0.40536052178 1.1212709645 0.99024905182 1.0606328064 1.0304986775 
0.62347776517 0.42311154072 0.27888641214 0.16999069586 0.12180298567 0.092577888598 0.08279781562 0.16731457699 0.080026236276 
0.15255937002 1.3599205197 0.27251315852 0.41337815434 0.21743153017 1.2836984004 0.3767552833 0.38995504512 0.34262086279 
0.48857533627 0.38184727709 0.48512333134 0.40389802265 0.30647311043 0.23905834934 0.27398736682 0.27398736682 0.21014974009 
0.15137946135 0.08841882861 0.064890229751 0.097550405523 0.09036274013 0.20826204395 0.22878895522 0.28078704836 0.31012849422 
0.43094131121 0.55872979693 0.60594963838 0.55264324379 0.68869572785 0.7226339459 0.64624601737 0.70218814415 0.70943159267 
0.60294723525 0.62645683047 0.52045169427 0.43046094086 0.25080841794 0.17388449678 0.084546405699 0.035663403233 0.10496187562 
0.20499773338 0.1865294101 0.28887822665 0.26042518211 0.11664610271 0.15520541673 0.30810994611 1.3028229203 1.2782272071 
1.2409297779 1.1862873133 1.1555749422 1.0993376245 1.0363909254 1.0077143906 0.93307346758 0.86210794247 1.1054200769 
1.1012964986 1.0346770438 1.0070722247 0.98993668174 0.85837104512 0.80247950343 0.75124274358 0.71767984563 0.66152360859 
0.70770527607 0.96823697585 0.33263282863 0.35739360019 0.48522444468 0.50795925086 0.53583091313 0.56805267727 0.73421311914 
0.78771877872 0.84349299986 0.66669294744 0.73754762222 1.2229324498 0.95827432398 0.83458590473 0.84517597118 0.93175895473 
0.83759362255 0.86311546987 0.90064371946 0.94540642047 0.99285339783 0.84374342256 0.59779225275 0.49320149695 0.54992975697 
0.51650904313 0.49836264816 0.49985421966 0.59740572886 0.70620024937 0.76624144401 0.61408063132 0.50424351487 0.53671619615 
0.68765006563 0.771273621 0.54785837935 0.38855446059 0.39797354927 0.49303114763 0.33551926972 0.50139506096 0.35653971289 
0.55437798789 1.5977016937 0.18977159477 0.11166956812 0.095171036344 0.21573477302 0.28100463403 0.32658660225 1.6108942706 
1.6130456637 0 1.090229335 1.2281497117 0.9511104301 0.81087703347 0.72801561507 0.20680758044 0.32453884893 
0.95431383711 0.94986028965 0.85677651765 0.89973843513 0.8339062619 0.95537985609 1.2469215564 0.63172568791 0.56445980813 
0.49865064638 0.43478118549 0.37366959462 0.31680004799 0.26693307578 0.27544464412 0.24958647847 0.15802401067 0.08076582864 
0.096369454938 0.09071146399 0.2933230619 0.38323478202 0.47983309941 0.22806193099 0.39115424911 0.63903563176 0.84036457679 
1.5162697704 1.1784083543 1.5274622059 1.4287174571 1.3896432824 1.2471883705 1.2045357251 1.0770685941 0.94263504697 
0.84651432608 0.79995259326 0.69899557159 0.61872856547 0.53002532719 0.55443801127 0.6592937014 0.74818164925 0.65200033253 
0.735020773 0.8526703464 1.1579617018 1.2097142018 0.58481332144 0.46931672034 0.57993632818 0.73617266429 0.77872592883 
1.0524648055 1.12962308 1.1965916999 1.1633555182 1.0948978999 1.0243676783 0.69507450742 0.91655906478 0.9364970091 
0.87484703229 0.81809199013 0.76972191898 0.73088115029 0.73774836906 0.77726443909 0.80287771598 1.0780453819 1.0324365391 
0.45193991186 0.29311321272 0.27988947183 0.35028508841 0.36003321633 0.3709558312 0.35788082183 0.32406292137 0.31738548206 
0.27128989641 0.28547599609 0.22627336203 0.23270097176 0.26299473168 0.20622145601 0.24192056868 0.28734384811 0.20232162838 
0 0.21406068356 0.32056431533 0.45257795047 0.50016105375 0.57693294502 0.71882999962 0.56149366327 1.0251412723 
0.12340079636 0.086738338676 0.030293759919 0.049546194591 0.17390118914 0.63754879814 0.81060290872 0.80667154942 0.81631614296 
0.66104316885 0.6569578534 0.66104316885 0.70862627213 0.75642076955 0.88506681589 1.1777383076 1.195638968 1.0441827951 
0.97466572938 0.93919740854 0.19922425621 0.22650215054 0.22650215054 0.22650215054 0.19922425621 0.19228628967 0.58355831127 
0.86412816384 0.40016696762 0.44643921793 0.53434834025 0.69479837196 0.63044362064 0.25809344968 0.25011608885 0.27706469702 
0.3042005474 0.3042005474 0.3042005474 0.3042005474 0.30476150134 0.26226110505 0.18895556407 0.2544618421 0.349585731 
0.48570729798 0.45742835835 0.45742835835 0.37398518268 0.36363836615 0.3217505544 0.16941304389 0.29423456511 0.49934672168 
0.49116359829 0.463647609 0.43662715981 0.399515494 0.16743177847 0.43833655986 0.4124104416 0.4124104416 0.24726176418 
0.21501488175 0.14090400627 0.3858826694 0.3858826694 0.3858826694 0.077764939603 0.399515494 0.3729877218 0.33473683732 
0.33473683732 0.33473683732 0.30893074392 0.051901398458 0.51554900746 0.28379410921 0.28379410921 0.26984915594 0.46724471579 
0.56672921752 1.0303768265 0.20539538919 0.20539538919 0.52714594359 0.1891990221 0.5109495765 0.9745971855 0.82786088328 
0.80602813372 0.76334513204 0.45570883707 0.39785678149 0.31045195734 0.36733436407 0.46643692125 0.63998712765 0.61528258456 
0.5897431465 0.5633718862 0.43524961007 0.4690098518 0.50598094757 0.47767687076 0.44853355803 0.4773133994 0.52575352319 
0.50052519969 0.46197617421 0.45290969717 0.42875341838 0.4045910112 0.40912091497 0.38576420885 0.47049481434 0.59810957938 
0.59332549279 0.61368180228 0.62071442382 0.66598037309 0.72378066569 0.79947836321 0.89354341606 1.0268253008 1.0232340909 
0.9944211062 0.17985349979 0.15037142801 0.12062366858 0.45647247828 0.53210315604 0.64026451594 0.74732151672 0.22740196737 
0.20495413613 0.16514867741 0.52835574237 0.58800260355 0.68969145531 0.60156766292 0.82537685052 0.80580349408 0.76499283271 
0.54647241313 0.51975767202 1.2960225302 1.2553632313 1.1630641434 1.0552473193 1.0531844729 1.0399200463 0.99631340978 
0.95191170737 0.90687649522 0.886627147 0.83993170708 0.81562663488 0.79305568796 0.76943545196 0.74621290577 0.72159385829 
0.69591091664 0.61875164808 0.45768630849 0.38146103516 0.30363449094 0.26924929188 0.48167330763 0.27684400068 0.25391103847 
0.28931124254 0.38217930504 0.56523467345 0.24697858766 0.26366264307 0.25200341541 0.27139767486 0.25589346368 0.24357835984 
0.23648983048 0.23313961527 0.12764668805 0.206082639 0.19485432693 0.18096552094 0.16362851876 0.14237506947 0.1202329299 
0.1207465683 0.21377928853 0.33131493925 0.93324752866 0.89138252139 1.1490260283 0.56523467345 0.56523467345 0.56523467345 
1.0979338611 1.0512600094 1.0083103096 1.0513354761 1.2058749747 1.2323505475 0.886627147 0.83993170708 0.79305568796 
0.74621290577 1.0219461163 1.0373815252 0.98708794929 0.96994409679 0.95191170737 0.92614764255 0.90687649522 0.886627147 
0.86138502228 0.83993170708 0.81742913807 0.76943545196 0.72159385829 0.67413326479 0.62727477332 0.58122664274 0.5633718862 