# vtk DataFile Version 5.1
vtk output
ASCII
DATASET POLYDATA
POINTS 2307 double
6.2100002468 37.665001497 66 6.3450002521 29.835001186 66 6.3450002521 29.970001191 66 
6.3450002521 37.530001491 66.5 6.3450002521 37.530001491 67 6.3450002521 37.530001491 67.5 
6.3450002521 37.800001502 65.5 6.4800002575 29.565001175 66 6.4800002575 29.70000118 66 
6.4800002575 37.260001481 69 6.4800002575 37.260001481 69.5 6.4800002575 37.395001486 68 
6.4800002575 37.395001486 68.5 6.4800002575 37.935001507 65 6.4800002575 38.070001513 65 
6.4800002575 38.205001518 65 6.6150002629 29.295001164 66 6.6150002629 29.430001169 66 
6.6150002629 37.125001475 70.5 6.6150002629 37.125001475 71 6.6150002629 37.260001481 70 
6.6150002629 38.340001523 64.5 6.6150002629 38.475001529 64.5 6.7500002682 29.025001153 66 
6.7500002682 29.160001159 66 6.7500002682 36.99000147 72 6.7500002682 36.99000147 72.5 
6.7500002682 37.125001475 71.5 6.7500002682 38.610001534 64 6.7500002682 38.74500154 64 
6.8850002736 28.755001143 66 6.8850002736 28.890001148 66 6.8850002736 36.855001464 73 
6.8850002736 36.855001464 73.5 6.8850002736 38.880001545 64 7.0200002789 28.485001132 66 
7.0200002789 28.620001137 66 7.0200002789 33.750001341 80.5 7.0200002789 33.885001346 80 
7.0200002789 34.020001352 80 7.0200002789 34.155001357 79.5 7.0200002789 34.290001363 79 
7.0200002789 34.425001368 78.5 7.0200002789 34.560001373 78 7.0200002789 34.695001379 78 
7.0200002789 34.830001384 77.5 7.0200002789 34.965001389 77.5 7.0200002789 35.100001395 77 
7.0200002789 35.2350014 77 7.0200002789 35.370001405 76.5 7.0200002789 35.505001411 76.5 
7.0200002789 35.640001416 76 7.0200002789 35.775001422 76 7.0200002789 35.910001427 75.5 
7.0200002789 36.045001432 75.5 7.0200002789 36.180001438 75 7.0200002789 36.315001443 75 
7.0200002789 36.450001448 74.5 7.0200002789 36.585001454 74.5 7.0200002789 36.720001459 74 
7.0200002789 39.01500155 63.5 7.0200002789 39.150001556 63.5 7.0200002789 39.285001561 63.5 
7.0200002789 39.420001566 63 7.0200002789 39.555001572 63 7.0200002789 39.690001577 62.5 
7.0200002789 39.825001583 62.5 7.0200002789 39.960001588 62.5 7.0200002789 40.095001593 62 
7.0200002789 40.230001599 62 7.0200002789 40.365001604 61.5 7.0200002789 40.500001609 61.5 
7.0200002789 40.635001615 61.5 7.1550002843 28.080001116 65.5 7.1550002843 28.215001121 66 
7.1550002843 28.350001127 66 7.1550002843 31.995001271 86 7.1550002843 32.130001277 86 
7.1550002843 32.265001282 85.5 7.1550002843 32.400001287 85 7.1550002843 32.535001293 84.5 
7.1550002843 32.670001298 84 7.1550002843 32.805001304 83.5 7.1550002843 32.940001309 83 
7.1550002843 33.075001314 83 7.1550002843 33.21000132 82.5 7.1550002843 33.345001325 82 
7.1550002843 33.48000133 81.5 7.1550002843 33.615001336 81 7.1550002843 40.77000162 61 
7.1550002843 40.905001625 61 7.1550002843 41.040001631 61 7.1550002843 41.175001636 61 
7.1550002843 41.310001642 60.5 7.1550002843 41.445001647 60 7.1550002843 41.580001652 60 
7.1550002843 41.715001658 60 7.1550002843 41.850001663 60 7.1550002843 41.985001668 59.5 
7.1550002843 42.120001674 59.5 7.1550002843 42.255001679 58.5 7.1550002843 42.255001679 59 
7.2900002897 27.810001105 65.5 7.2900002897 27.94500111 65.5 7.2900002897 30.375001207 91.5 
7.2900002897 30.510001212 91 7.2900002897 30.645001218 90.5 7.2900002897 30.780001223 90 
7.2900002897 30.915001228 89.5 7.2900002897 31.050001234 89.5 7.2900002897 31.185001239 89 
7.2900002897 31.320001245 88.5 7.2900002897 31.45500125 88 7.2900002897 31.590001255 87.5 
7.2900002897 31.725001261 87 7.2900002897 31.860001266 86.5 7.2900002897 41.985001668 57 
7.2900002897 42.120001674 57.5 7.2900002897 42.120001674 58 7.425000295 27.540001094 65.5 
7.425000295 27.6750011 65.5 7.425000295 29.295001164 95 7.425000295 29.430001169 94.5 
7.425000295 29.565001175 94 7.425000295 29.70000118 93.5 7.425000295 29.835001186 93 
7.425000295 29.970001191 93 7.425000295 30.105001196 92.5 7.425000295 30.240001202 92 
7.425000295 41.850001663 55.5 7.425000295 41.985001668 56 7.425000295 41.985001668 56.5 
7.5600003004 27.270001084 65.5 7.5600003004 27.405001089 65.5 7.5600003004 29.025001153 95.5 
7.5600003004 29.160001159 95 7.5600003004 41.715001658 54 7.5600003004 41.715001658 54.5 
7.5600003004 41.850001663 55 7.6950003058 27.000001073 65.5 7.6950003058 27.135001078 65.5 
7.6950003058 28.620001137 96.5 7.6950003058 28.755001143 96 7.6950003058 28.890001148 95.5 
7.6950003058 41.580001652 52.5 7.6950003058 41.580001652 53 7.6950003058 41.715001658 53.5 
7.8300003111 26.730001062 65.5 7.8300003111 26.865001068 65.5 7.8300003111 28.215001121 97 
7.8300003111 28.350001127 97 7.8300003111 28.485001132 96.5 7.8300003111 41.445001647 52 
7.9650003165 26.460001051 65.5 7.9650003165 26.595001057 65.5 7.9650003165 27.94500111 98 
7.9650003165 28.080001116 97.5 7.9650003165 41.310001642 50.5 7.9650003165 41.310001642 51 
7.9650003165 41.445001647 51.5 8.1000003219 26.190001041 65 8.1000003219 26.325001046 65.5 
8.1000003219 27.540001094 98.5 8.1000003219 27.6750011 98.5 8.1000003219 27.810001105 98 
8.1000003219 41.310001642 50 8.2350003272 25.92000103 65 8.2350003272 26.055001035 65 
8.2350003272 27.135001078 99.5 8.2350003272 27.270001084 99.5 8.2350003272 27.405001089 99 
8.2350003272 41.040001631 49 8.2350003272 41.175001636 49.5 8.3700003326 25.785001025 65 
8.3700003326 26.865001068 100 8.3700003326 27.000001073 100 8.3700003326 41.040001631 48.5 
8.505000338 25.110000998 65 8.505000338 25.245001003 65 8.505000338 25.380001009 65 
8.505000338 25.515001014 65 8.505000338 25.650001019 65 8.505000338 26.460001051 101 
8.505000338 26.595001057 100.5 8.505000338 26.730001062 100.5 8.505000338 40.905001625 47.5 
8.505000338 40.905001625 48 8.6400003433 24.300000966 65 8.6400003433 24.435000971 65 
8.6400003433 24.570000976 65 8.6400003433 24.705000982 65 8.6400003433 24.840000987 65 
8.6400003433 24.975000992 65 8.6400003433 25.785001025 65 8.6400003433 26.190001041 101.5 
8.6400003433 26.325001046 101.5 8.6400003433 40.77000162 47 8.7750003487 23.625000939 64.5 
8.7750003487 23.760000944 64.5 8.7750003487 23.89500095 64.5 8.7750003487 24.030000955 65 
8.7750003487 24.16500096 65 8.7750003487 25.785001025 102.5 8.7750003487 25.92000103 65 
8.7750003487 25.92000103 102 8.7750003487 26.055001035 102 8.7750003487 40.635001615 46 
8.7750003487 40.635001615 46.5 8.9100003541 22.950000912 64.5 8.9100003541 23.085000917 64.5 
8.9100003541 23.220000923 64.5 8.9100003541 23.355000928 64.5 8.9100003541 23.490000933 64.5 
8.9100003541 25.380001009 103.5 8.9100003541 25.515001014 103 8.9100003541 25.650001019 103 
8.9100003541 26.055001035 65 8.9100003541 26.190001041 65 8.9100003541 40.500001609 45.5 
9.0450003594 22.14000088 55 9.0450003594 22.14000088 55.5 9.0450003594 22.14000088 56 
9.0450003594 22.14000088 56.5 9.0450003594 22.14000088 57 9.0450003594 22.14000088 57.5 
9.0450003594 22.14000088 58 9.0450003594 22.14000088 58.5 9.0450003594 22.14000088 59 
9.0450003594 22.14000088 59.5 9.0450003594 22.14000088 60 9.0450003594 22.14000088 60.5 
9.0450003594 22.14000088 61 9.0450003594 22.14000088 61.5 9.0450003594 22.14000088 62 
9.0450003594 22.14000088 62.5 9.0450003594 22.14000088 63 9.0450003594 22.14000088 63.5 
9.0450003594 22.275000885 54.5 9.0450003594 22.275000885 64 9.0450003594 22.275000885 64.5 
9.0450003594 22.41000089 64.5 9.0450003594 22.545000896 64.5 9.0450003594 22.680000901 64.5 
9.0450003594 22.815000907 64.5 9.0450003594 25.110000998 104 9.0450003594 25.245001003 103.5 
9.0450003594 26.325001046 65 9.0450003594 40.365001604 44.5 9.0450003594 40.365001604 45 
9.1800003648 22.005000874 53.5 9.1800003648 22.14000088 54 9.1800003648 22.14000088 65 
9.1800003648 22.14000088 65.5 9.1800003648 22.14000088 66 9.1800003648 22.14000088 66.5 
9.1800003648 22.41000089 54.5 9.1800003648 22.545000896 54.5 9.1800003648 22.680000901 54.5 
9.1800003648 24.705000982 105 9.1800003648 24.840000987 104.5 9.1800003648 24.975000992 104.5 
9.1800003648 26.460001051 65 9.1800003648 40.230001599 43.5 9.1800003648 40.365001604 44 
9.3150003701 21.870000869 52.5 9.3150003701 22.005000874 53 9.3150003701 22.14000088 67 
9.3150003701 22.14000088 67.5 9.3150003701 22.14000088 68 9.3150003701 22.815000907 54.5 
9.3150003701 22.950000912 54.5 9.3150003701 24.300000966 106 9.3150003701 24.435000971 105.5 
9.3150003701 24.570000976 105 9.3150003701 26.595001057 65 9.3150003701 40.230001599 42.5 
9.3150003701 40.230001599 43 9.4500003755 21.600000858 51.5 9.4500003755 21.735000864 52 
9.4500003755 22.005000874 69.5 9.4500003755 22.005000874 70 9.4500003755 22.14000088 68.5 
9.4500003755 22.14000088 69 9.4500003755 23.085000917 54 9.4500003755 24.030000955 106.5 
9.4500003755 24.16500096 106 9.4500003755 26.730001062 65 9.4500003755 40.230001599 41.5 
9.4500003755 40.230001599 42 9.5850003809 21.465000853 50.5 9.5850003809 21.600000858 51 
9.5850003809 22.005000874 70.5 9.5850003809 22.005000874 71 9.5850003809 22.005000874 71.5 
9.5850003809 23.220000923 54 9.5850003809 23.355000928 54 9.5850003809 23.89500095 106.5 
9.5850003809 26.865001068 64.5 9.5850003809 27.000001073 64.5 9.5850003809 40.230001599 40.5 
9.5850003809 40.230001599 41 9.7200003862 21.330000848 49.5 9.7200003862 21.330000848 50 
9.7200003862 22.005000874 72 9.7200003862 22.005000874 72.5 9.7200003862 22.005000874 73 
9.7200003862 22.005000874 73.5 9.7200003862 23.490000933 54 9.7200003862 23.625000939 54 
9.7200003862 23.760000944 107 9.7200003862 27.135001078 64.5 9.7200003862 40.230001599 39 
9.7200003862 40.230001599 39.5 9.7200003862 40.230001599 40 9.8550003916 21.195000842 49 
9.8550003916 21.870000869 77.5 9.8550003916 21.870000869 78 9.8550003916 22.005000874 74 
9.8550003916 22.005000874 74.5 9.8550003916 22.005000874 75 9.8550003916 22.005000874 75.5 
9.8550003916 22.005000874 76 9.8550003916 22.005000874 76.5 9.8550003916 22.005000874 77 
[...]
CELL_DATA 2306
SCALARS angle%0A[rad] double
LOOKUP_TABLE default
0 1.6461454762 1.7134563363 0.71496646201 0.32358709681 0.32511925177 0.22686694278 0.16062187565 0.12297645569 
0.14883063028 0.12124792181 0.093521112674 0.036682180761 0.036682180761 0.037175280707 0 0.026275481901 0.026275481901 
0.036682180761 0 0.026275481901 0.026275481901 0.026275481901 0.025900407941 0.026275481901 0.026275481901 0.026275481901 
0.025900407941 0.036682180761 0.026275481901 0.026275481901 0 0.037175280707 0.026275481901 0.026275481901 0.026275481901 
0.026275481901 0.057456805783 0.025572494332 0.050832147994 0.072107818325 0.09211351839 0.080403492206 0.056535370018 0.072107818325 
0.09211351839 0.071623206343 0.056931966525 0.070850211001 0.051561449588 0.077101753974 0.025711440461 1.4901161194e-08 0.035092025779 
0.055959571159 0.055959571159 0.034791091472 0.024798771185 0.055811676889 0.025367220246 0.034791091472 0.036212266094 0.034791091472 
0.024798771185 0.025367220246 0.034791091472 0.024715826378 0.049761556834 0.072617013952 0.11243269602 0.10073906523 0.10073906523 
0.1382497883 0.12661367913 0.16269917439 0.15542670396 0.12960238805 0.13112593761 0.081707593344 0.077257399089 0.037055145552 
0.058582998785 0 0.058392819261 0.025975847747 2.1073424255e-08 0.03594180249 2.1073424255e-08 0.025975847747 0.025975847747 
0.025975847747 0.025975847747 0.025975847747 0.058392819261 0.025975847747 0.025975847747 2.1073424255e-08 0.025975847747 2.1073424255e-08 
0.025975847747 0.024342773198 0.029284571265 0.018833162934 0.066117399162 0.03594180249 0.029284571265 0.04429527462 0.081193956918 
0.14437897231 0.25066481632 0.20783176403 0.17119215909 0.15156375429 0.13418873322 0.11405416391 0.076219594234 0.060300643582 
0.038165226606 0.038172174832 0.080941048722 0.059928157497 0.067397766388 0.076990378037 0.089758177737 0.10758301464 0.13418873322 
0.17809294516 0.26371184446 0.23671840152 1.3665278456 1.3338481079 1.3008422616 1.2674989987 1.2091952299 1.1715684783 
1.1334559512 1.0635162446 1.0214291687 0.97041456749 0.92518259413 0.82682349383 1.0715755828 1.043107325 1.0124178157 
0.9119400571 0.88396068932 0.85741305778 0.74155614665 0.71944175398 0.71093935506 0.68903880401 0.56887902055 0.55051399184 
0.38973768539 0.29847445423 0.25991643783 0.27059763615 0.20563761432 0.24048980866 0.19605574285 0.2061031272 0.16117196751 
0.19891953005 0.14762442576 0.15797947862 0.10960175628 0.14741438469 0.093786359559 0.10668204839 0.054902020287 0.083407300055 
0.12669423322 0.25285437585 0.26014780459 0.24578075258 0.24972103099 0.24563996249 0.24972103099 0.25619661848 0.24951235948 
0.26272565401 0.24278080019 0.28630587191 0.24278080019 0.50603018903 0.1568883573 0.11423988807 0.038116654675 0.060173747175 
0.060173747175 0.060173747175 0.038026843819 0.038026843819 0.038026843819 0.038061396229 0 0.05377183659 0.038061396229 
0.038026843819 0.038026843819 0.038026843819 0.060173747175 0.053810620226 0.053810620226 2.1073424255e-08 0.053810620226 0.060208740479 
0.060208740479 0.038137461491 0.038137461491 0.038137461491 0.026983613979 1.4901161194e-08 1.4901161194e-08 0.053927990711 0.026983613979 
0.026983613979 0.026983613979 0.026983613979 1.4901161194e-08 1.4901161194e-08 1.4901161194e-08 1.4901161194e-08 1.4901161194e-08 0.026983613979 
0.026983613979 0.026983613979 0.060230578582 0.060230578582 0.060086542873 0.060086542873 0.096557149743 0.096557149743 0.11339852768 
0.15048339443 0.16985791593 0.18705068772 0.13210294659 0.14899632009 0.11800411423 0.15278037739 0.094272800733 0.094272800733 
0.073652160036 0.026188664224 0.026090476736 0 0.026090476736 0 0.026090476736 0.051965090639 0.026090476736 
0.026090476736 0.11119781758 0.11225232198 0.16475047549 0.29755930242 0.31524443408 0.46779847937 0.46779847937 0.58693450567 
0.62265619068 0.67731347837 0.63555712879 0.59445232521 0.5836640706 0.54674533441 0.50434816293 0.62936049656 0.51866859804 
0.47937672454 0.35520924475 0.3779830573 0.33418042633 0.29287683068 0.16880362678 0.22343309215 0.18175484179 0.14648076999 
0.2195060942 0.074025452111 0.064286977532 0.049523001351 0.049523001351 0 0.074025452111 0.13799101699 0.035978713506 
0.043320182349 0.14365160601 0.13799101699 0.035978713506 0.035978713506 0.073549153335 0.074025452111 0 0.049523001351 
0.17339297234 0.14019028713 0.10293914468 0.11585369932 0.16191808896 0.17675261017 0.20024742324 0.38038948671 0.26062052701 
0.25906284942 0.24896756778 0.26728792512 0.29394907757 0.30327360922 0.32307056608 0.4459327637 0.46820634666 0.47677551701 
0.55482104076 0.55772441946 0.50762621947 0.52046109465 0.4487413662 0.43020378824 0.52352610266 0.43679243555 0.38362050614 
0.32920761245 0.28592032429 0.25867773325 0.37095315228 0.72318091476 0.71524745806 0.70219224727 0.69219125095 0.72006077241 
0.529038758 0.78422309347 0.79592981279 2.0022520441 2.0052998189 1.9750813393 1.9245839089 1.8879687627 1.863343485 
1.9058097539 1.8424787218 1.7738970343 1.7008576425 1.6568773066 1.5822622195 1.5389976737 1.4801037768 1.3339906469 
1.2890008088 1.2457920413 0.76263227444 0.66629653267 0.63437318696 0.70272596821 0.64460761718 0.61689709571 0.57981926302 
0.56550723968 0.55227698017 0.54001776419 0.50202202726 0.52490795478 0.53011655616 0.39929030232 0.39797334237 0.39677241719 
0.50897296418 0.40848544172 0.42410782046 0.46260592794 0.46260592794 0.46260592794 0.35780295449 0.37285464216 0.37642519477 
0.37814292447 0.37814292447 0.4881269603 0.50637410588 0.52568529601 0.5503048835 0.55432108571 0.57572119048 0.66925801245 
0.74299048667 0.76567272081 0.52927880366 0.52927880366 0.60205084365 0.62470306028 0.40217885249 0.40217885249 0.40217885249 
0.47449440651 0.23402611438 0.23402611438 0.23402611438 0.31937363307 0.2146099988 0.2146099988 0.18966164812 0.27673882137 
0.045020668405 0.11284135936 0.15445761067 0.1757246092 0.13480707353 0.1551606631 0.27502428579 0.29865531231 0.26562523902 
0.44744925605 0.46998852409 0.49394774489 0.46621683818 0.58669059569 0.61151427643 0.66022643448 0.61068326787 0.75641304385 
0.7805998056 0.78350771459 0.74475728504 0.88506704433 0.75433066767 0.75053515637 0.64868612953 0.62900609295 0.59462753963 
0.41693400261 0.42167372977 0.31637976127 0.23140707552 0.24401585866 0.12012629652 0.12806211331 0.042188357372 0.046220438427 
0.027689602798 0.027689602798 0.029677124388 0.04552292174 0.045159975059 0.029677124388 0.04552292174 0.029677124388 0.045159975059 
0.04552292174 0.029677124388 0.027689602798 0.027689602798 0.045159975059 0.027689602798 0.027689602798 0.097966375942 0.079745256146 
0.081669173563 0.096744662329 0.096744662329 0.15682523818 0.11634496852 0.074034114122 0.13475025401 0.13475025401 0.21705084887 
0.17793063924 0.16193786711 0.10365559459 0.10365559459 0.13751911147 0.10114352414 0.064481359199 0.10178996709 0.043180385231 
0.031702347978 0.024617541228 0.024617541228 0.024617541228 0.024617541228 0.024617541228 0 0.024617541228 0.024617541228 
0.035576775728 0.03571919873 0.035576775728 0.024617541228 0.024617541228 0.024617541228 0.024617541228 0.024617541228 0.024617541228 
0.024617541228 0 0.032316621045 0.032316621045 0.08771280844 0.11194543365 0.13660990047 0.088116509401 0.11248522221 
0.15739979928 0.15739979928 0.20802365864 0.15739979928 0.15531025799 0.05205517462 0.058634435841 0.027898797683 0.038728552292 
0.084064982019 0.09723606112 0.14332380884 0.15937506188 0.22428018837 0.22428018837 0.29252871404 0.32527487825 0.37570076917 
0.37589676387 0.36394372092 0.29434255396 0.26478771869 0.21196089622 0.21139754005 0.15571131765 0.082427042151 0.074387882465 
0.15440596456 0.20682310206 0.2084199381 0.30595426266 0.36311772915 0.40559879288 0.47188937007 0.54330350676 0.4932311526 
0.49577207636 0.44655103781 0.42209676658 0.40527249049 0.33082367341 0.39366403745 0.34185471379 0.28816649332 0.27279845133 
0.25311675626 0.22768872242 0.22498525585 0.18110887232 0.1794667276 0.14229299646 0.17233954975 0.14925215472 0.19047710752 
0.17898073079 0.20547530586 0.25800509861 0.30022328565 0.37583189939 0.42855566429 0.48100155213 0.45713314657 0.51731265209 
0.54707187602 0.58096523308 0.63330356953 0.66149822212 0.71374360554 0.71488084332 0.63160669883 0.54791939673 0.46216097975 
0.40828202087 0.28867430804 0.28601968012 0.17344227544 0.1102497728 0.059178093546 0.058910677785 0.037084866745 0.083132902365 
0.083132902365 0.058498843034 0.073652160036 0.052562094373 0.093562428324 0.109617113 0.058173709858 0.052158997372 0.036567293291 
2.1073424255e-08 2.1073424255e-08 1.0883790652 0.96948777472 0.026273132382 0.082737398337 0.052694240613 1.9567484558 1.940198925 
1.9164285415 1.8911439674 1.8540497717 1.8285617936 0.933331659 0.88337504506 0.88024487012 0.11675751878 0.16534595414 
0.13441635326 0.13139167024 0.16073955737 0.14264058784 0.85477173047 0.13507487545 0.095379366259 1.5872404413 1.5013437276 
0.83274848835 0.037483238814 0.052854870272 0.084229984463 0.14351972609 1.4704939718 1.4236961336 1.2969100348 0.72809235899 
0.1680291238 0.2102152148 0.69021193477 0.52807269809 0.26812898264 0.31803210257 0.35257275723 0.3179131738 1.2529123796 
0.99243239372 0.54836374785 0.31733057859 0.29454447519 0.24248199315 0.24223669373 0.21057907497 0.21016259792 0.96897913043 
0.76986601029 0.50002379953 0.15866502699 0.14167462857 0.13554312457 0.75108203456 0.73036295729 0.56521186998 0.44666590766 
0.06059474002 0.037833655932 0.059595984581 0.027812073006 0.024801082833 0.057457045398 0.52825535113 0.016435345827 0.030279918924 
0.049490564512 0.048489532189 0.024801082833 0.057156155967 0.1761999816 0.16247321696 0.53332388262 0.54696253513 0.059595984581 
0.069840647447 0.14886110254 0.15731011428 0.15098723851 0.19437847005 0.2078433907 0.19020637863 0.54950432873 0.42470384174 
0.39298636297 0.41881485437 0.39298636297 0.43858713399 0.39298636297 0.44101502291 0.44742935628 0.47161982357 0.41893240353 
0.43996107537 0.34546140561 0.32641661433 0.3020081717 0.47161982357 0.52405862287 0.52405862287 0.3020081717 0.27787436293 
0.25337551622 0.22115315494 0.27217094862 0.42882228981 0.40497826935 0.26354448624 0.23706329162 0.20524236291 0.26193774492 
0.23815644979 0.43693464162 0.41218886515 0.21572813962 0.17937339215 0.15456651615 0.17489195365 0.11664007185 0.41481517771 
0.44326747045 0.4182976098 0.39817356638 0.1124204561 0.10904918881 0.080537013329 0.51930361706 0.11420366501 0.11626034287 
0.086151847236 0.074502327253 0.094685927905 0.072046471553 0.49858983392 0.52716921145 0.48172503885 0.66431865281 0.66431865281 
0.65120949176 0.62955048884 0.034311199829 0.018140238484 0.03136540022 0.056935871777 0.056899801098 0.61740618299 0.60625957592 
0.60625957592 0.58609148341 0.5763175349 0.5763175349 0.56790208693 0.56790208693 0.54922797525 0.065795821616 0.084052633412 
0.11081882212 0.18799087786 0.21833603444 0.53158127639 0.51489086213 0.41485987382 0.41397824643 0.40420481275 0.40420481275 
0.39066000304 0.37719450695 0.36446720133 0.26001147018 0.24922529129 0.2483961862 0.24754847411 0.23841204842 0.2298750736 
0.2219190617 0.11110840779 0.1109666921 0.26432718488 0.32780984459 0.24518900772 0.24217786261 0.28483251015 0.38008480807 
0.10800959632 0.11582192624 0.11095314288 0.10642560577 0.1024860187 0.021735706842 0.027515989285 0.033967512678 0.041213762658 
0.65897218464 0.049410300408 0.058755822716 0.0063693406186 0 0.0075186553123 0.016527420603 0.027515989285 0.041213762658 
0.058755822716 0.082007445526 0.11425432796 0.16407456397 0.083141231888 0.083141231888 0.083141231888 0.026111875982 0.99027278934 
0 1.172682081 0.021387005415 1.1498074343 0.22911634221 1.1244213977 1.0331674912 0.26390186721 0.29122498167 
0.98900423537 0.070491836943 0.99374097941 0.092816757677 0.069502405318 0.078362884583 0.96163637428 0.11704732487 0.14367481555 
0.97358347778 0.97626523039 0.18749210658 0.98285549715 0.18424679199 0.95937128961 0.13797859962 0.94776970352 0.16459500906 
0.92967704412 0.21573177637 0.21573177637 0.84018581363 0.82818338179 0.24319428751 0.82619444664 0.16131172007 0.798132299 
0.11760094354 0.14491768301 0.67826945263 0.14491768301 0.5068635211 0.5464208871 0.16355570704 0.58901661009 0.33542400851 
0.29454457632 0.60331002555 0.53632215747 0.2027338837 0.15920050073 0.50050707771 0.51863548407 0.17056347693 0.15206365093 
0.4863935596 0.4965179998 0.46711376505 0.21654027626 0.59410396634 0.19190862349 0.1830215333 0.16063499778 0.7277181683 
0.74602494708 0.73568282506 0.088095277299 0.1833963022 0.71010624554 0.16063499778 0.17155159163 0.73615343642 0.81048669357 
0.17155159163 0.1632881063 0.81407755529 0.79987502569 0.14926086448 0.78768243307 0.30654307008 0.29319934612 0.80680004491 
0.90836095399 0.92537503913 0.29319934612 0.16426001373 0.15290995362 0.12192201496 0.10388404316 0.028613444077 0.042906055287 
0.31906434052 0.33008728729 0.34528773761 0.41542422911 0.41051695013 0.52398286778 0.55469430365 0.56739358635 0.7981443306 
0.82153461334 0.82764115782 0.93559965822 0.97191913889 1.0118220609 1.0839408874 1.1073978197 1.1597515865 1.2117090285 
1.2303558418 1.2799855078 1.3767957697 1.4314423264 1.4345028591 1.4094196305 1.3421851364 1.3367880609 1.3348920981 
1.2062709678 1.2084796201 1.2174769968 1.1201460984 1.1346200867 0.7987508843 0.81512809985 0.68162975178 0.67052155798 
0.67594721426 0.71882999962 0.48689923181 0.58800260355 0.86522814911 0 0 0.41028075399 0.32503777943 
0.24894911114 0.18454972723 0.32567809418 0.31696233808 0.3381753864 0.32710305927 0.33853636829 0.3584343472 0.37174527868 
0.55073105085 0.57729542826 0.60833993128 1.0168120689 1.0592364623 1.1055275726 1.2530970641 1.2850845035 1.4487164398 
1.5471636098 1.5787825084 1.625275753 1.6560175305 1.7005560256 1.7313630769 1.6733401982 1.7076346777 1.6516323506 
1.5603936835 0.92537503913 1.5213658529 1.3095803846 1.224288805 0.93614543442 0.81969112579 0.58812727989 0.56718874976 
0.49022250679 0.54508228004 0.51539591317 0.60706495934 0.47856261825 0.3665589705 0.58577746494 0.40170147707 0.28626366611 
0.14974731033 0.94478301354 0.44327337586 1.0294725511 0.40190995811 0.47715015023 1.0575702748 0.87997589407 1.5976202936 
2.3894995965 2.4070158044 2.520085755 1.0486215885 1.0600589164 0.43474875398 0.51008348157 0.47220835357 0.36126915915 
0.31861995526 2.6755559393 2.9116180048 0.95539656662 0.43289372141 0.38527994666 1.0198484089 1.0197774418 1.0464795002 
1.8160149006 1.8538876991 1.6604258852 1.6499987433 1.5850279659 1.3849708739 1.3066495041 0.29600162705 0.43532624271 
1.0179323542 0.85445864289 0.32836429101 0.12363512505 0.075525411231 0.25418428309 1.0179323542 0.92757676094 0.86195267153 
0.87557841572 1.1607400645 0.6899190549 1.2381935857 1.1128239714 0.73393749551 0.66736789877 1.0784461724 0.97466390363 
1.1716871388 1.0648065097 0.98102009424 1.0439384863 1.1946323224 0.9053667748 0.89341386474 0.97332465774 1.1470808423 
0.55150636236 0.58290518896 0.71343345104 0.95319845152 0.2189841257 0.12207624018 0.098828130126 0.26739030761 0.72035446069 
0.65634744126 1.4196865486 1.4098289962 1.4018490048 1.3717322481 1.2977104325 1.2448402892 1.2399117632 1.188242567 
1.189145561 1.0791060401 1.0162853751 1.0134684966 0.95282087991 0.96724855697 0.92593097354 0.54779762372 0.54490817442 
0.4414162036 0.4891871903 0.42810293445 0.29234726619 0.32500787187 0.20717519916 0.3217505544 0.20112688582 0.058755822716 
0.39305801918 0.47058811721 1.0442308093 1.0620939046 1.0330595308 0.4710226667 2.1953315553 1.272420742 1.119989538 
1.0631261127 1.106761959 0.27376724853 1.1721447251 0.93615987058 1.185198671 0.33333835254 0.3829639686 1.8963433466 
0.91234977259 0.80177441295 1.1691285112 0.099339613899 1.1744062035 1.2204437773 0.95617401605 0.58054094799 0.91481053106 
0.86817310197 1.0830814414 0.15214658029 1.4455699334 1.2761773402 1.9085571697 0.25177343639 1.877499614 0.79744588662 
1.0555176821 0.16682067024 0.045423755259 0.92610574386 1.0244143154 0.67237425797 0.39368267881 0.2997278512 0.28171937967 
0.69262367535 1.0377336963 0.90607629339 0.6507216702 1.0080482284 0.85298022646 0.81219079457 0.77832898089 0.75234045619 
0.75927985558 0.68980835388 0.68356464016 0.65220597343 0.62155322199 0.59155467396 0.50124599759 0.47228179559 0.57498379425 
0.54923726906 0.52416855112 0.41959230183 0.39669453519 0.37444954962 0.35280597969 0.24983235632 0.24427634138 0.22893667817 
0.30755422489 0.2778818541 0.29005711025 0.30749613957 0.33113624318 0.40317308955 0.44809279851 0.48381234873 0.55264475124 
0.63913429739 0.66655180568 0.42184084668 0.54431042455 0.2366001258 0.5553084183 0.46142218823 0.32619020589 0.43350393159 
0.72030404619 2.3633919366 2.3575011315 2.3498749117 2.2776649939 2.2280690469 2.1827225809 2.1470972254 2.07655151 
1.9728854292 1.891979057 1.8121823456 1.6890026502 1.5842017532 1.4356051174 1.0111988181 0.90667233742 0.80721710531 
0.71582285863 0.70761520431 0.70675338483 0.34646715156 0.32711063971 0.24079853484 0.2340185376 0.2600126195 0.26535141248 
0.29655234703 0.0312083063 0.073322213034 0.087455768903 0.12262202056 0.16790473713 0.23385243293 0.26184545835 0.11456992166 
0.043432434138 0.069814637119 0.26184545835 0.42158834774 0.55804248166 0.83555111908 0.63177898662 0.48221188315 0.57488917807 
0.54881704358 1.4646737055 1.188693072 1.1434326508 1.4632512499 0.68564411757 0.49370352669 1.2117555037 0.47126601052 
0.87433247163 1.0325362965 1.1641434208 0.45055414839 0.43149968233 0.79702971513 0.96381609489 0.91957483733 1.0541080017 
0.88061278095 0.98381532287 0.4090421984 0.47971015137 0.93925028955 0.34310309569 0.6341891185 0.48783410045 0.51668272301 
0.32606612537 0.5992328505 0.46637735666 0.28928807058 0.37926195545 0.31028505915 0.137987744 0.057853388036 0.26626146703 
0.57866106459 0.32545570383 0.56737843847 0.22315259788 0.17858423648 0.07339672139 0.082241636122 0.031179850454 0.23581782989 
0.11322801369 0.086092024028 0.074630009389 0.040308565158 0.040891186612 0.20023310418 0.15896084459 0.10629982542 0.024897164913 
0.10944476658 0.35239684487 0.47058811721 0.61748590547 0.49344752552 1.8401019557 1.8299898812 1.8251796172 1.7853793779 
1.7561920302 1.7097258089 1.6765798278 1.6193421618 1.3580003055 1.2490671751 1.1615526515 1.0433185717 0.95444338555 
0.90077410135 0.87454885593 0.91639788886 0.40962120407 0.32908747029 0.25950038312 0.20649717727 0.36083138822 0.6276247305 
0.14132197604 0.36083138822 0.61128599362 0.077110038061 0.36306853858 0.067670241051 0.19211598618 0.10240510116 0.047601330319 
0.15972440292 0.52203426869 0.34339726197 0.3291963359 0.26550030158 0.26702693631 0.26916152234 0.26374197028 0.26402427364 
0.54206567948 0.80421303498 0.35780295449 0.52071652352 0.90539364255 0.34376943564 0.49887139432 0.39805367407 0.92099450821 
0.35266682108 0.38091752665 0.9489544784 0.26399097879 0.93468540408 0.26399097879 1.0513134446 0.45657658441 1.1423542555 
0.45596782384 1.1740924276 1.4524906732 0.45596782384 0.78651046816 0.91607118792 0.45596782384 0.35972534277 0.83088244294 
0.5429164694 0.35730932213 0.90236198928 0.51293689258 0.34212297007 0.62434710036 0.27173695921 0.35301040191 0.37453183887 
0.52933131339 1.0127841742 1.1567941051 0.29161453464 0.49934672168 0.94927735087 1.2215152034 0.20973385929 0.20973385929 
0.76700520346 0.20973385929 0.87483101376 0.20973385929 0.15697080718 0.32188229992 1.0277254396 1.2298321037 0.69713158186 
0.94847668936 0.16555172155 0.40241927477 0.50067287936 0.15665171404 0.18705069844 0.21380053117 0.42416951204 0.14865348074 
0.472249843 0.064015467505 0.72970607077 0.33101815751 0.43610797795 0.83172825809 0.51716374188 0.5925306445 0.14625435577 
0.41230729192 0.28735141344 0.14317122312 0.19935799356 0.33037909189 0.50763309787 0.15819384792 0.33134634151 0.59466558371 