# vtk DataFile Version 5.1
vtk output
ASCII
DATASET POLYDATA
POINTS 3004 double
24.570000976 21.870000869 58 24.705000982 21.870000869 58 24.705000982 22.005000874 58 
24.840000987 18.495000735 102 24.840000987 18.495000735 102.5 24.840000987 21.600000858 63.5 
24.840000987 21.870000869 58.5 24.840000987 22.005000874 58.5 24.975000992 18.090000719 96 
24.975000992 18.090000719 96.5 24.975000992 18.090000719 97 24.975000992 18.090000719 97.5 
24.975000992 18.225000724 95 24.975000992 18.225000724 95.5 24.975000992 18.36000073 92.5 
24.975000992 18.36000073 93 24.975000992 18.36000073 93.5 24.975000992 18.36000073 94 
24.975000992 18.36000073 94.5 24.975000992 18.495000735 101.5 24.975000992 18.495000735 103 
24.975000992 21.465000853 61 24.975000992 21.465000853 61.5 24.975000992 21.465000853 64 
24.975000992 21.600000858 59.5 24.975000992 21.600000858 60.5 24.975000992 21.600000858 61 
24.975000992 21.600000858 61.5 24.975000992 21.600000858 63.5 24.975000992 21.735000864 59.5 
24.975000992 21.735000864 61 24.975000992 21.735000864 61.5 24.975000992 21.735000864 62 
24.975000992 21.735000864 62.5 24.975000992 21.870000869 59 24.975000992 21.870000869 59.5 
25.110000998 18.225000724 98 25.110000998 18.225000724 98.5 25.110000998 18.36000073 99 
25.110000998 18.495000735 91.5 25.110000998 18.495000735 92 25.110000998 18.495000735 101 
25.110000998 18.495000735 103.5 25.110000998 18.63000074 86.5 25.110000998 18.63000074 87 
25.110000998 18.63000074 104 25.110000998 18.63000074 104.5 25.110000998 18.63000074 105 
25.110000998 18.63000074 105.5 25.110000998 18.765000746 86 25.110000998 18.765000746 86.5 
25.110000998 18.900000751 85.5 25.110000998 18.900000751 86 25.110000998 21.600000858 64 
25.110000998 21.735000864 63 25.110000998 21.735000864 63.5 25.110000998 21.735000864 64 
25.110000998 21.870000869 60 25.110000998 21.870000869 60.5 25.110000998 21.870000869 61 
25.245001003 18.495000735 90.5 25.245001003 18.495000735 91 25.245001003 18.495000735 99.5 
25.245001003 18.495000735 100 25.245001003 18.495000735 100.5 25.245001003 18.63000074 87.5 
25.245001003 18.765000746 87 25.245001003 18.765000746 106 25.245001003 18.765000746 106.5 
25.245001003 18.900000751 85 25.245001003 18.900000751 85.5 25.245001003 19.035000756 84 
25.245001003 19.170000762 83.5 25.245001003 21.735000864 64.5 25.245001003 21.870000869 62.5 
25.380001009 10.665000424 11 25.380001009 18.495000735 89 25.380001009 18.495000735 89.5 
25.380001009 18.495000735 90 25.380001009 18.63000074 88 25.380001009 18.63000074 88.5 
25.380001009 18.765000746 107 25.380001009 18.765000746 107.5 25.380001009 18.765000746 108 
25.380001009 18.900000751 110 25.380001009 19.035000756 84.5 25.380001009 19.035000756 110.5 
25.380001009 19.035000756 111 25.380001009 19.035000756 111.5 25.380001009 19.305000767 83 
25.380001009 19.440000772 81.5 25.380001009 19.440000772 82 25.380001009 19.440000772 82.5 
25.380001009 19.980000794 76.5 25.380001009 19.980000794 77 25.380001009 21.735000864 65 
25.380001009 21.870000869 62.5 25.515001014 10.665000424 11.5 25.515001014 18.900000751 108.5 
25.515001014 18.900000751 109 25.515001014 18.900000751 109.5 25.515001014 19.170000762 111.5 
25.515001014 19.170000762 112 25.515001014 19.575000778 80.5 25.515001014 19.575000778 81 
25.515001014 19.710000783 79 25.515001014 19.710000783 79.5 25.515001014 19.710000783 80 
25.515001014 19.845000789 78.5 25.515001014 19.980000794 77 25.515001014 19.980000794 77.5 
25.515001014 19.980000794 78 25.515001014 20.115000799 76 25.515001014 20.115000799 76.5 
25.515001014 20.250000805 75.5 25.515001014 20.250000805 76 25.515001014 20.38500081 75 
25.515001014 21.735000864 65.5 25.650001019 10.665000424 11.5 25.650001019 19.170000762 112 
25.650001019 19.170000762 112.5 25.650001019 19.845000789 79 25.650001019 19.980000794 78.5 
25.650001019 20.38500081 75.5 25.650001019 20.520000815 74.5 25.650001019 20.655000821 73 
25.650001019 20.655000821 73.5 25.650001019 20.655000821 74 25.650001019 21.735000864 66 
25.785001025 10.665000424 12 25.785001025 19.305000767 113 25.785001025 19.305000767 113.5 
25.785001025 20.790000826 72.5 25.785001025 20.925000831 71.5 25.785001025 20.925000831 72 
25.785001025 21.060000837 70.5 25.785001025 21.060000837 71 25.785001025 21.195000842 70 
25.785001025 21.735000864 66.5 25.785001025 21.735000864 67 25.92000103 10.665000424 12 
25.92000103 19.440000772 113.5 25.92000103 19.440000772 114 25.92000103 21.330000848 69.5 
25.92000103 21.465000853 69 25.92000103 21.600000858 68.5 25.92000103 21.735000864 67.5 
25.92000103 21.735000864 68 25.92000103 21.870000869 67 25.92000103 21.870000869 67.5 
25.92000103 22.005000874 67 26.055001035 10.665000424 12 26.055001035 19.575000778 114 
26.055001035 19.575000778 114.5 26.055001035 22.14000088 67 26.190001041 10.665000424 12.5 
26.190001041 10.665000424 13 26.190001041 19.710000783 114.5 26.190001041 19.710000783 115 
26.325001046 10.665000424 13.5 26.325001046 19.845000789 115.5 26.325001046 19.845000789 116 
26.460001051 10.530000418 14 26.460001051 19.980000794 116.5 26.595001057 10.530000418 14 
26.595001057 19.980000794 116.5 26.730001062 10.530000418 14.5 26.730001062 19.980000794 117 
26.865001068 10.530000418 14.5 26.865001068 19.980000794 117 27.000001073 10.530000418 15 
27.000001073 20.115000799 117.5 27.135001078 10.530000418 15 27.135001078 19.980000794 118 
27.135001078 20.115000799 118 27.135001078 20.250000805 118 27.270001084 10.530000418 15.5 
27.270001084 20.250000805 118.5 27.405001089 10.530000418 15.5 27.405001089 20.250000805 118.5 
27.405001089 20.38500081 118.5 27.540001094 10.395000413 16 27.540001094 20.250000805 119 
27.540001094 20.38500081 118.5 27.6750011 10.395000413 16.5 27.6750011 20.250000805 119.5 
27.6750011 20.38500081 119 27.810001105 8.1000003219 159 27.810001105 8.2350003272 159 
27.810001105 8.3700003326 159 27.810001105 10.395000413 16.5 27.810001105 10.395000413 17 
27.810001105 20.38500081 119.5 27.810001105 20.520000815 119.5 27.94500111 7.9650003165 158.5 
27.94500111 8.505000338 159.5 27.94500111 8.6400003433 159.5 27.94500111 8.7750003487 159.5 
27.94500111 8.9100003541 159.5 27.94500111 9.0450003594 160 27.94500111 9.1800003648 160.5 
27.94500111 9.3150003701 160.5 27.94500111 9.4500003755 160.5 27.94500111 10.395000413 17 
27.94500111 10.395000413 17.5 27.94500111 20.520000815 120 28.080001116 7.8300003111 156.5 
28.080001116 7.8300003111 157 28.080001116 7.8300003111 157.5 28.080001116 7.8300003111 158 
28.080001116 9.5850003809 160.5 28.080001116 9.7200003862 161 28.080001116 9.8550003916 161 
28.080001116 9.990000397 161 28.080001116 10.125000402 161.5 28.080001116 10.260000408 161.5 
28.080001116 10.395000413 17.5 28.080001116 20.520000815 120.5 28.215001121 7.6950003058 153.5 
28.215001121 7.6950003058 154 28.215001121 7.6950003058 154.5 28.215001121 7.6950003058 155 
28.215001121 7.6950003058 155.5 28.215001121 7.6950003058 156 28.215001121 10.395000413 18 
28.215001121 10.395000413 161.5 28.215001121 10.530000418 161.5 28.215001121 10.665000424 162 
28.215001121 20.520000815 121 28.215001121 20.655000821 121 28.350001127 7.6950003058 152.5 
28.350001127 7.6950003058 153 28.350001127 10.395000413 18 28.350001127 10.800000429 162 
28.350001127 10.935000435 162 28.350001127 20.655000821 121.5 28.350001127 20.790000826 121.5 
28.485001132 7.5600003004 151 28.485001132 7.5600003004 151.5 28.485001132 7.5600003004 152 
28.485001132 10.260000408 18.5 28.485001132 11.07000044 162 28.485001132 11.205000445 162.5 
28.485001132 20.790000826 122 28.620001137 7.5600003004 149 28.620001137 7.5600003004 149.5 
28.620001137 7.5600003004 150 28.620001137 7.5600003004 150.5 28.620001137 10.260000408 19 
28.620001137 11.340000451 162.5 28.620001137 11.475000456 162.5 28.620001137 20.925000831 122.5 
28.755001143 7.425000295 141.5 28.755001143 7.425000295 142 28.755001143 7.425000295 142.5 
28.755001143 7.425000295 143 28.755001143 7.5600003004 142.5 28.755001143 7.5600003004 143 
28.755001143 7.5600003004 143.5 28.755001143 7.5600003004 144 28.755001143 7.5600003004 144.5 
28.755001143 7.5600003004 145 28.755001143 7.5600003004 145.5 28.755001143 7.5600003004 146 
28.755001143 7.5600003004 146.5 28.755001143 7.5600003004 148.5 28.755001143 10.260000408 19.5 
28.755001143 11.610000461 162.5 28.755001143 11.745000467 162.5 28.755001143 11.880000472 163 
28.755001143 21.060000837 123 28.755001143 21.060000837 123.5 28.890001148 6.6150002629 136 
28.890001148 6.6150002629 136.5 28.890001148 7.0200002789 139 28.890001148 7.1550002843 139.5 
28.890001148 7.1550002843 140 28.890001148 7.2900002897 140.5 28.890001148 7.2900002897 141 
28.890001148 7.5600003004 147 28.890001148 7.5600003004 147.5 28.890001148 7.5600003004 148 
28.890001148 10.260000408 19.5 28.890001148 12.015000477 163.5 28.890001148 12.150000483 163.5 
28.890001148 12.285000488 163.5 28.890001148 21.060000837 124 29.025001153 6.4800002575 134 
29.025001153 6.4800002575 134.5 29.025001153 6.4800002575 135 29.025001153 6.6150002629 135.5 
29.025001153 6.6150002629 136 29.025001153 6.7500002682 136.5 29.025001153 6.7500002682 137 
29.025001153 6.8850002736 137.5 29.025001153 6.8850002736 138 29.025001153 7.0200002789 138.5 
29.025001153 9.1800003648 27 29.025001153 9.3150003701 27 29.025001153 9.4500003755 27 
29.025001153 9.5850003809 27 29.025001153 9.7200003862 27 29.025001153 9.8550003916 27 
29.025001153 9.990000397 27 29.025001153 10.260000408 19.5 29.025001153 12.420000494 164 
29.025001153 12.555000499 164 29.025001153 21.060000837 124 29.160001159 6.2100002468 133 
29.160001159 6.3450002521 133.5 29.160001159 6.4800002575 133.5 29.160001159 8.3700003326 27.5 
29.160001159 8.505000338 27.5 29.160001159 8.6400003433 27.5 29.160001159 8.7750003487 27.5 
29.160001159 8.9100003541 27.5 29.160001159 9.0450003594 27 29.160001159 10.125000402 27 
[...]
CELL_DATA 3003
SCALARS angle%0A[rad] double
LOOKUP_TABLE default
0 0.93385998076 0.51893316255 0.8575441221 0.7018831614 0.59138239345 0.526079287 0.51099656383 0.54377385693 
0.48575372119 0.57994012395 0.57174034908 0.60084317653 0.70046244471 0.9833846781 0.93385998076 0.2147809896 0.20106172296 
0.19186116965 0.18805914722 0.19152866881 0.20580530464 0.23762209181 0.15278949055 0.17939833208 0.27853886005 0.15564771831 
1.1605616469 0.1418970546 0.035859061494 0.019045315982 0.11255978524 0.11931583358 0.13740745832 0.19086060276 0.1202499274 
0.1499351441 0.127729069 0.127729069 0.127729069 0.40032407665 0.12128606904 1.562515236 1.5700487241 1.5845651683 
1.4500006746 1.4159272777 1.4334360854 1.3909534502 1.1662161669 1.1884466082 0.856795568 0.91946801571 0.89447568254 
0.63392882152 0.72572543686 0.54378354651 0.17646890451 0.12452988163 0.19274080623 0.40683046984 1.0277125322 0.35281686589 
1.0429609459 0.1900016519 0.19447490474 1.0389003642 0.17480554548 0.28421166723 0.22540533801 0.093608866224 0.064516214234 
0.22540533801 0.2830338846 0.27379752659 0.25552151111 0.29715132972 0.28413819072 0.63680447575 0.54580419434 0.27655675184 
0.17633032028 0.33070349239 0.28809230213 0.23315401806 0.1842199673 0.21390187147 0.10042702007 0.017142484204 0.070252360364 
0.16194167485 0.049635431174 0.16476973503 0.35410202819 0.3622641052 0.93977104641 0.50179723151 0.21715200255 0.32493233231 
0.2480739279 0.18838324876 0.21798619309 0.21697141073 0.21798619309 1.1302670518 0.20257854524 0.12297372248 0.14057910917 
0.14057910917 0.1827009439 0.12239612818 0.12519032352 0.18176610398 0.1676184137 0.13974631447 0.10520899596 0.1033806977 
0.13760978768 0.17080678828 0.10395813656 0.20429290315 0.11809396914 0.14139435147 0.073116282117 0.060962964801 0.056962418044 
0.16021342126 0.064349106745 0.056297988362 0.074623389176 0.036264491156 0.081519170438 0.025711440461 0.068168048585 1.4901161194e-08 
0.12538926913 0.13112593761 0.13514779005 0.18730997621 0.28058499759 0.30262490359 0.2740009836 0.20747391304 0.23969283565 
0.20869733724 0.28933577837 0.34524547719 1.3856406889 0.067221685848 0.01426506252 0.051251744847 0.092458772132 0.096301369189 
0.12103331734 0.093278066908 0.092458772132 0.10712705075 0.150035547 0.11791776913 0.073206539735 0.054369078563 0.067238702028 
0.081758819923 0.08844551231 0.20039924273 0.17294832892 0.13007570616 0.10191434589 0.11615896679 0.069984137488 0.026022902879 
0.074953559652 0.14362389635 0.13118006446 0.2267218278 0.2298043425 0.25490492991 0.28865310426 0.31197571062 0.29163335928 
0.26609747841 0.21575872165 0.18658491095 0.15969195388 0.23601531372 0.29546300137 0.31105318814 0.19229403557 0.20349636495 
0.18361378905 0.22992937164 0.30568342038 0.38321531342 0.38315529281 0.35115946597 0.32597800546 0.29605568579 0.28572073446 
0.24744153411 0.20815307489 0.26108967365 0.35379740675 0.34679883502 0.16997473576 0.13965433165 0.028032869968 0.093543408335 
0.12997900778 0.12125098071 0.14504609991 0.096137944363 0.07412896038 0.13426796579 0.16576883199 0.10117398443 0.1038479735 
0.034791091472 0.049905993944 0.024798771185 0.13108832663 0.024798771185 0.1511007096 0.44257524849 0.27783669054 1.3103259069 
0.029905213722 0.031532792536 0.012613618656 0.042602313084 0.089482258754 0.086892418552 0.19480557869 0.23553740756 0.14002740245 
0.136556518 0.14317149943 0.1155372848 0.099848964749 0.074511040933 0.23058462371 0.17513403508 0.15278037739 0.18981303609 
0.15278037739 0.14899632009 0.11800411423 0.083985695468 0.026673658078 0.053462669664 0.059970078566 0.059970078566 0.026837203318 
2.1073424255e-08 0.097041371296 0.085224345466 0.11100655458 0.080706476945 0.084916448806 0.10766066834 0.13698696919 0.13698696919 
0.060195649093 0.026866243494 0.085224345466 0.085224345466 0.080911604691 0.060318182082 0.085311065802 0.097258169974 0.13741460972 
0.16158846841 0.16385166305 0.18060920648 0.15243918847 0.17243064353 0.14511968934 0.11111073531 0.11100655458 0.11100655458 
0.053869273626 0.050904750335 0.047555141649 0.06838526669 0.054611574808 0.13457575057 0.15344421962 0.18137112612 0.22153326866 
0.34854082032 0.10998949434 0.14377460416 0.14377460416 0.15083382296 0.11955447279 0.11307586914 0.037726723834 0.095491802248 
0.097333725857 0.042743240542 0.07308795696 0.05294737043 0.029640989939 0.10665212929 0.080100080112 0.16913163262 0.026750893396 
0.069167148222 0.053463555066 0.13681347087 0.037788137762 0.15840012132 0.037404515965 0.095284159556 0.059440763125 0.059440763125 
0.026608438132 0.037408636351 0.037148138383 0.082668195939 0.05214788138 0.023801301069 0.068570597587 0.03566730438 0.10297062312 
0.10360239256 0.11600463648 0.11600463648 0.093383961422 0.073330814746 0.35592256749 0.37516835612 0.30779225882 0.27146178441 
0.24837771318 0.21170444861 0.15217202363 0.16913163262 0.16278140806 0.026416002513 0.18864862103 0.18864862103 0.17406092345 
0.032216417883 0.059758297912 0.21146365257 0.060300643582 0.35878817156 0.44195425541 1.4900020926 0.25723918036 0.2164722586 
0.43852188001 1.3839997076 0.20891439625 0.63008758381 0.29517908586 0.51846337375 0.5014301466 1.4764589848 1.5977505182 
0.14230357747 0.7062124014 0.37360364281 0.68691203012 0.66386053155 0.92216392752 0.68142681446 0.19662527005 0.28904453172 
0.33119166071 0.45308808775 0.3708773931 0.41405734031 0.26366259694 0.26366259694 0.92317605364 0.26089926363 0.90445680886 
0.88488410308 0.8390073051 1.3357330259 1.3810992807 1.3886514453 1.4060373161 1.4258741794 1.4483607925 1.4847715925 
1.5064484777 1.537776974 1.3280662754 1.2911784557 1.3431897255 1.4011136266 1.0159555112 0.67944356545 0.86384684562 
0.95234690687 0.55404788545 0.55707591026 0.56205288206 0.56205288206 0.62438232407 0.5546693116 0.59619263137 0.58753231338 
0.064517454399 0.67615291464 0.67930015661 0.69095828836 0.690323501 0.6775616923 0.77200648415 0.36874175023 0.75592834372 
0.73274882353 0.52495837284 0.69512248399 0.67427442916 0.56887902055 0.56887902055 0.56887902055 0.55051399184 0.53318576065 
0.51681851382 0.40293635825 0.40293635825 0.40293635825 0.40293635825 0.40293635825 0.38998317527 0.26792242666 0.51889623698 
0.50280129261 0.48759626944 0.37915157744 0.37915157744 0.37915157744 0.37776664432 0.37776664432 0.37776664432 0.36588946471 
0.36723912997 0.35602139565 0.34544191633 0.33544990514 0.22946710562 0.22946710562 0.22946710562 0.22274465435 0.19847409267 
0 0.014596713581 0.10315338877 0.11364474927 0.12835983407 0.14794213172 0.17319348461 0.20521374457 0.24557069997 
0.2965200512 0.36130320037 0.44453108547 0.51948058182 0.23455062178 0.23455062178 0.23455062178 0.44421858253 0.22441454678 
0.24833628246 0.23886833168 0.26932131122 0.30253839087 0.31633118233 0.35587530921 0.39916221647 0.12006238511 0.18741078994 
0.35614498865 0.10312758053 0.10799539163 0.16132470087 0.22269931341 0.36134419908 0.70254347507 0.70607378485 0.10895891353 
0.70607378485 0.70607378485 0.70607378485 0.68421088846 0.25248901871 0.68421088846 0.68070918087 0.45620585722 0.26418000671 
0.31572148108 0.26418000671 0.29140852081 0.31572148108 0.29140852081 0.29140852081 0.21223051272 0.16729971918 0.20683648127 
0.10535938862 0.1279466717 0.026498165251 0.027228514091 0.030102169476 0.066018983219 0.066752834647 0.1229068343 0.12145965504 
0.12145965504 0.14418834898 0.11546907276 0.14531327775 0.1041833411 0.14627974007 0.19373254536 0.20391531943 0.24682143353 
0.26888985673 0.25310234958 0.21298842936 0.23781726772 0.20161255762 0.20161255762 0.15797351574 0.15785802039 0.11129558558 
0.15877007784 0.19441224201 0.23162377542 0.14825132967 0.11421888088 0.10074888878 0.11155579563 0.15117188778 0.10126483088 
0.12340278694 0.074872442081 0.27978901839 0.084829627417 0.071265818449 0.10650579988 0.068078336135 0.13867082618 0.15169772809 
0.12016592259 0.044894595345 0.072248541393 0.080473511682 0.15652408488 0.10226701548 0.11994960785 0.076219594234 0.040722167721 
0.045167339553 0.019251280618 0.020085334068 0 0.01895144211 0.097044096901 0.11994960785 0.076219594234 0.19003478073 
0.31876237265 0.027149560348 0.0067437526968 0.011558875938 0.017976220696 0.053947605782 0.038165226606 0.02699344294 0.038165226606 
0.038165226606 0.060348916429 0.060348916429 0.060348916429 0.097258169974 0.1205226636 0.14511968934 0.10781699324 0.13457645758 
0.14642237366 0.16118217616 0.18007214613 0.13686081664 0.13629290093 0.14830300324 0.10091060091 0.1848348924 0.18288829416 
0.15612882983 0.12952311124 0.16060473573 0.16060473573 0.18948586585 0.29517908586 0.096494239731 0.11974272426 0.11974272426 
0.096731717454 0.1257457877 0.11374613158 0.12372205822 0.12640815604 0.13399459469 0.14953345944 0.17068806406 0.11086736701 
0.11086736701 0.15856872499 0.1717879914 0.1848348924 0.019003198655 0.11405416391 0.11405416391 0.11405416391 0.13457575057 
0.12772385561 0.15644163119 0.2153603753 0.060300643582 0.085054587061 0.026915082233 0.026915082233 0.053869273626 0.060195649093 
0.060195649093 0.075999157667 0.096892958427 0.080677203496 0.060191309939 0.10754367318 0.085125405928 0.038061396229 0.026954191393 
0.076178071089 0.097051943341 0.11405368599 0.17993265144 0.19497350382 0.18941468588 0.2209319453 0.20406860322 0.15652408488 
0.14402387265 0.11935670637 0.075671353178 0.075671353178 0.084672647517 0.11940080953 0.11940080953 0.16857975001 0.1335659018 
0.11973368626 0.11944298967 0.13622690059 0.11989771407 0.13681347087 0.11397182685 0.17202541936 0.17202541936 0.23963081437 
0.22946431196 0.25452831887 0.18992329621 0.1075441236 0.062805722863 0.12109199984 0.088883950106 0.091763259763 0.11916810833 
0.13600886299 0.11297658647 0.13299664049 0.13681347087 0.17732594057 0.19741433668 0.13452029928 0.11953638811 0.070711531323 
0.16287404906 0.16757402076 0.13028657557 0.11482672793 0.10512871109 0.072866784667 0.052424901865 0.026230473694 0.036794585734 
0.051583044389 0.10310710873 0.10633826506 0.13224159792 0.18307520594 0.21462335383 0.24784891707 0.26328369986 0.24386396194 
0.23827964456 0.21940772794 0.16688823138 0.14620505394 0.19304979784 0.15169772809 0.088278801103 0.09661420808 0.12016592259 
0.044177433508 0.079668596561 0.11939433667 0.22454112 0.19966378087 0.084639198886 0.14438762946 0.13867082618 0.13399459469 
0.13418873322 0.096600871062 0.19966378087 0.25348926207 1.437040431 1.4107069503 1.3641652117 1.3356587493 1.307536296 
1.2798336739 0.12436108153 0.18389964903 0.19367974833 0.37621771203 0.099314866542 0.12561498877 0.19349412395 0.21487699451 
0.21487699451 0.19955326278 0.37240679461 0.30281571854 0.27840068502 0.19510792254 0.19510792254 0.16989022499 0.14135933966 
0.12136614196 0.10502039904 0.0089779421448 0.026954191393 0.067373247557 0.076219594234 0.060300643582 0.060300643582 0.11994960785 
0.24267116418 0.053869273626 0.097044096901 0.060300643582 0.060300643582 0.060300643582 0.26414797622 0.23492551988 0.20583307673 
0.17772608865 0.15310522659 0.066692463122 0.14250481999 0.11600463648 0.093383961422 0.1840007003 0.1922460529 0.19349449112 
0.14254769021 0.18515563786 0.16507946513 0.13299664049 0.20783176403 0.20501859465 0.13585431676 0.10975954289 0.132498815 
0.1435571482 0.13318400962 0.13342088211 0.15113039747 0.15113039747 0.059688973594 0.037726723834 0.10996097675 0.10975954289 
0.13501352751 0.17819581623 0.17846196416 0.23837969157 0.33110151386 0.36371502175 0.31235758571 0.36801088977 0.16503704658 
0.15217202363 0.10546097566 0.057185775444 0.0091898812812 0.032659525926 0.07086589476 0.088357293732 0.08760153444 0.048689939126 
0.1030489917 0.051804928683 0.10389094759 0.10757715378 0.056931966525 0.17819878244 0.25310524838 0.24351689325 0.2658131434 
0.2983667258 0.23959959644 0.28332625799 0.34420239598 0.23702554767 0.38226115303 0.28191492464 0.053433197549 1.3862295669 
1.208321402 1.2200489214 1.1998230793 1.1384648273 1.117121024 1.064921522 1.0476479423 1.0373356327 1.0408244055 
1.0294832395 1.186311727 0.61266994237 0.68037675511 0.4051036102 0.24513622347 0.2754330301 0.14839069482 0.22160004678 
0.317995713 0.38994917377 0.47377927063 0.5662884273 0.54663155663 0.6327642777 0.5759471414 0.51864587961 0.46143332872 
0.37133996101 0.31865728486 0.2747011009 0.246289089 0.23522156225 0.23989653693 0.29883589876 0.29619516965 0.29048072187 
0.11174730753 0.36872727772 0.23582645427 0.28606537402 0.31101237137 0.28643363766 0.21037604707 0.040231773346 0.078025215655 
0.072470441592 0.027769027451 0.03573711154 0.035219157005 0.018662331986 0.078187860427 0.066069780192 0.057322301696 0.1597809151 
0.25439130777 0.13527633192 0.056728365309 0.11203368883 0.18026703895 0.09661420808 0.044817573449 0.15520541673 1.5440454334 
1.5441501035 1.5707963268 0.050878228202 0.10191434589 0.19350716651 0.10758301464 0.30141709415 0.11835013963 0.1256581982 
0.088515001239 0.16503704658 0.28281999897 0.34407506029 0.6901747131 1.70498506 0.28536186213 0.3477123323 0.16503704658 
0.13028657557 1.4021022197 0.31556243396 1.4014993577 0.28733335212 1.334480416 0.37140630802 1.2930810566 1.0008505791 
1.437040431 1.4107069503 1.3646139239 1.3361650534 1.3080978094 1.2804478421 1.2468424699 2.7848018857 2.7127292606 
2.5532126678 2.2668296186 1.5943980962 0.91028556356 0.44826574766 0.31535924161 0.20509191512 0.11670511386 0.085162512636 
0.085054587061 0.084916448806 0.075888937305 0.060086542873 0.038116674861 0.097141387889 0.085202728028 0.085202728028 0.060300643582 
0.093928767095 0.16238979628 0.15047779154 0.085311065802 0.098161356966 0.14619463822 0.188136339 0.02699344294 0.26505775269 
0.31862736021 0.32994986099 0.28948852301 0.28026290626 0.30083199409 0.31168999923 0.23033899292 0.24182806884 0.14285180993 
0.15546810289 0.057861089354 0.063752927816 0.083854730818 0.12625712909 0.05814533266 0.05814533266 0.05814533266 0.05814533266 
0.027652413751 0.055884726213 0.076370543672 0.077481477899 0.081843748783 0.13631109756 0.10814424284 0.16208301597 0.042149040114 
0.067374975408 0.14988754258 0.10410636876 0.13448303291 0.13448303291 0.14581290141 0.079082253111 0.056778233948 0.15713637544 
0.12605731896 0.1640015302 0.14535166892 0.14644831667 0.16848698192 0.21373120441 0.23516902062 0.22704305252 0.22704305252 
0.17514314331 0.19939320263 0.13111178282 0.18624844807 0.24457749715 0.28756036479 0.29133896389 0.22605190314 0.22681384764 
0.24658442581 0.26800201884 0.24745064205 0.29957567215 0.29934496473 0.26377013561 0.20429242399 0.17942207389 0.13383406193 
0.096557149743 0.084638093885 0.03800639731 0.03800639731 0.11038714515 0.16231063844 0.19460892669 0.18953163763 0.20387597685 
0.19516322111 0.27217902367 0.2908764772 0.31770631936 0.34423349603 0.31737637409 0.29248657429 0.27783578391 0.2390833803 
0.24433376931 0.21033797704 0.15594290412 0.10131229085 0.046628217188 0.01031726746 0.068725783862 0.11187891934 0.16229699734 
0.13457138089 0.093540085325 0.16090677481 0.1790718805 0.090346394534 0.20947369069 0.12002882371 0.17917904214 0.15615398149 
0.12016592259 0.074542652263 0.12040394191 0.078427547668 0.083662428595 0.15615398149 0.27627518395 0.2681191196 0.27268319801 
0.34810400709 0.33023727347 0.24905942387 0.22033819509 0.11504185943 0.16575792979 0.2772737934 0.15212029973 0.18519919972 
0.16687191348 0.26739291878 0.23348767524 0.25932341773 0.17861133882 0.13243441131 0.026636525046 0.02656813986 0.015925549671 
0.040042788737 0.053222663659 0.031956886988 0.03780878228 0.040042788737 0.076756302213 0.10624574709 0.14438762946 0.13399388035 
0.15641951605 0.15641951605 0.12016592259 0.1075441236 0.080794234205 0.080794234205 0.053927990711 0.060283087213 0.060318182082 
0.11112963513 0.13721048947 0.13721048947 0.11086736701 0.060173747175 0.060173747175 0.060173747175 0.060173747175 0.026954191393 
0.060108489129 0.05377183659 0.053616132889 0.053616132889 0.060021807755 0.053655481269 0.13612153413 0.18091663177 0.26485706118 
0.29131818603 0.33398326801 0.39535884237 0.52843492459 0.55573713694 0.66434444084 0.68466692589 0.63628854865 0.61130383703 
0.60052168325 0.53581294315 0.36997682209 0.37369080949 0.52229471577 0.47533302215 0.1038479735 0.1038479735 0.52703065073 
0.51866859804 0.47937672454 0.41622305838 0.33647953276 0.36919553358 0.33342100934 0.27141106346 0.30176932984 0.28494686384 
0.21435899525 0.17374751228 0.21195177686 0.10731051909 0.14438762946 0.12016592259 0.10731051909 0.16281228151 0.22821642677 
0.10994192244 0.13064546955 0.085425204182 0.13524906167 0.14970853881 0.17349373367 1.7828707197 1.7174929268 1.5431271935 
1.5851111843 1.5544973608 1.5706825207 1.2682724174 1.082988666 1.0303890001 1.0032742188 1.0625506639 1.0870923339 
1.1187467289 1.0979733652 1.2683752515 1.3999416777 1.3876409187 1.3947949783 1.411850021 1.4016468075 1.4157457601 
0.20066460056 0.12254958062 0.17522187232 0.099303009678 1.4331975474 1.4536862029 0.15273171015 0.17802559765 0.087064614485 
0.14176121851 0.21010652526 0.10444598647 0.14136282034 1.4831363592 0.20645206578 0.13189733922 0.18061398236 0.33438906332 
0.079105129493 1.5125066905 1.6191436191 1.6113174545 1.5928938315 1.6139690447 1.7276380233 1.7671496391 1.7829310327 
1.6852061821 1.7337667696 1.750559165 1.751056996 1.7704669832 0.25852999079 0.13518922549 0.013180510147 0.093350750221 
0.19839860675 0.083797060509 1.0334651136 0.30034799044 0.084639198886 0.1754453996 1.7314311931 0.25594546861 0.25348926207 
0.21645076719 1.6454037648 0.086443868953 0.10120546083 1.6651315563 0.10120546083 0.103297217 0.09457347469 0.19408855418 
0.41120133213 0.40509554839 0.64174830356 0.62803225822 0.59915070257 0.57526658688 0.52403775014 0.59133771342 0.51629326939 
0.45938275456 0.40165892085 0.34331352018 0.26552743047 0.28252231035 0.21712640199 0.32308209562 0.26404186722 0.21547061891 
0.26245514527 0.21251549062 0.20811012093 0.26468055846 0.39651296692 0.35595954602 1.6409434395 0.21614056722 0.20069477569 
0.29613911013 0.31330118652 0.3055640739 0.33253564003 0.35913889409 0.31267174498 0.24904793552 0.20860604059 0.20433608953 
0.25073065666 0.16012996921 0.19507563449 0.095678135331 0.11794882908 0.072601104862 0.058910677785 0.17119215909 0.18019548587 
0.30533663013 0.25509695873 0.31901999917 0.47247348759 0.40606113795 0.35501452444 0.30335565317 0.25102943096 1.6180473735 
0.37924845246 0.32345581794 0.43218772423 0.37358591645 0.27957855876 0.49302001706 0.40258929798 0.36326356488 1.5966188342 
1.4667257722 1.2508574202 1.2305882732 1.2134425599 1.2699796232 1.2657793541 1.265923909 1.2706164608 1.1566660341 
1.2178800638 1.0788624438 1.1177263944 1.1419711564 1.0556328408 0.99471777374 1.0327281063 1.0752742986 1.1302174624 
1.1512983416 1.1843398965 1.2128320666 1.1061861924 1.0762292142 1.0317187592 0.82243234951 0.84142499173 0.67222752577 
0.60990913258 0.4718683303 0.3896619352 0.33657005882 0.25604747733 0.11446444765 0.040541925394 0.053077141787 0.083202582508 
0.086751351686 0.14575733928 0.18133799072 0.24454930252 0.26485304207 0.29132316767 0.2795486552 0.20059783855 0.2887022443 
0.26371184446 0.2980218051 0.23687539365 0.10722926015 0.38555305616 0.22460478191 0.10210400491 0.84592684677 0.85653389163 
0.79839339599 0.16406976348 0.22553598957 0.76005996848 0.55267927805 0.47353404668 0.31116108923 0.33218673162 0.29252401862 
0.28722827824 0.30299022742 0.32989484937 0.14434812429 0.16105407532 0.19143310373 0.22124452226 0.27588831313 0.22896343415 
0.24529395238 0.18391450067 0.13009322494 0.20263336845 0.29641637863 0.23292074943 0.24529395238 0.24276564075 0.23905690584 
0.21240103315 0.1549488644 0.12343123123 0.10993557516 0.21352388162 0.17100628352 0.15438137453 0.20508528999 0.2679253073 
0.32774482179 0.27860879945 0.35016774145 0.31021735297 0.30124415937 0.25104293098 0.21089019914 0.32656312066 0.41820818687 