# vtk DataFile Version 5.1
vtk output
ASCII
DATASET POLYDATA
POINTS 4504 double
21.060000837 36.99000147 164.5 21.195000842 36.855001464 164.5 21.330000848 36.855001464 164.5 
21.465000853 36.855001464 164.5 21.600000858 36.720001459 165 21.735000864 36.720001459 165 
21.870000869 36.720001459 165 22.005000874 36.720001459 165 22.14000088 36.720001459 165 
22.275000885 36.720001459 165 22.41000089 36.720001459 165 22.545000896 36.585001454 165.5 
22.680000901 36.450001448 165.5 22.815000907 36.315001443 165.5 22.950000912 36.315001443 165.5 
23.085000917 36.315001443 165.5 23.220000923 36.315001443 166 23.355000928 36.315001443 166 
23.490000933 36.315001443 166 23.625000939 36.315001443 166 23.760000944 36.315001443 166 
23.89500095 36.180001438 166.5 24.030000955 36.180001438 167 24.030000955 36.315001443 166 
24.16500096 36.045001432 167 24.16500096 36.315001443 166 24.300000966 36.045001432 167 
24.300000966 36.315001443 166 24.435000971 35.910001427 167.5 24.435000971 36.315001443 165.5 
24.570000976 35.910001427 167.5 24.570000976 36.315001443 165 24.705000982 35.910001427 167.5 
24.840000987 35.775001422 167.5 24.975000992 35.775001422 167.5 25.110000998 35.775001422 167.5 
25.245001003 35.775001422 167.5 25.380001009 35.640001416 168 25.515001014 35.505001411 168 
25.650001019 35.505001411 168 25.785001025 35.505001411 168 25.92000103 35.505001411 168 
26.055001035 35.370001405 168 26.190001041 35.370001405 168 26.325001046 35.370001405 168 
26.460001051 35.370001405 168 26.595001057 35.370001405 168 26.730001062 35.370001405 168 
26.865001068 35.370001405 168 27.000001073 35.370001405 168 27.135001078 35.2350014 168.5 
27.270001084 35.2350014 168.5 27.405001089 35.100001395 168.5 27.540001094 35.100001395 168.5 
27.6750011 34.965001389 168.5 27.810001105 34.830001384 169 27.94500111 34.695001379 169 
28.080001116 34.425001368 169 28.080001116 34.560001373 169 28.215001121 34.290001363 169.5 
28.350001127 34.155001357 169.5 28.485001132 34.020001352 169.5 28.620001137 33.885001346 169.5 
28.755001143 33.885001346 169.5 28.890001148 33.750001341 170 29.025001153 33.615001336 170 
29.160001159 33.48000133 170 29.295001164 33.48000133 170 29.295001164 34.830001384 69 
29.430001169 33.48000133 170 29.430001169 34.830001384 69 29.565001175 33.48000133 170 
29.565001175 34.830001384 69 29.70000118 33.48000133 170 29.70000118 34.830001384 69.5 
29.835001186 33.345001325 170.5 29.835001186 34.830001384 69.5 29.835001186 34.965001389 63.5 
29.970001191 33.345001325 170.5 29.970001191 34.830001384 69.5 29.970001191 34.965001389 61.5 
29.970001191 34.965001389 62 29.970001191 34.965001389 62.5 29.970001191 34.965001389 63 
29.970001191 34.965001389 64 30.105001196 33.345001325 170.5 30.105001196 34.830001384 69.5 
30.105001196 34.965001389 61 30.105001196 34.965001389 64 30.240001202 33.345001325 170.5 
30.240001202 34.830001384 69.5 30.240001202 34.965001389 60.5 30.240001202 34.965001389 64 
30.375001207 33.48000133 171 30.375001207 34.830001384 64.5 30.375001207 34.830001384 69.5 
30.510001212 33.48000133 171 30.510001212 34.830001384 65 30.510001212 34.830001384 69.5 
30.645001218 33.345001325 30.5 30.645001218 33.615001336 171.5 30.645001218 34.020001352 28 
30.645001218 34.155001357 27.5 30.645001218 34.290001363 27.5 30.645001218 34.830001384 25.5 
30.645001218 34.830001384 65 30.645001218 34.830001384 69.5 30.780001223 33.21000132 30.5 
30.780001223 33.48000133 30 30.780001223 33.750001341 172 30.780001223 33.885001346 28.5 
30.780001223 34.425001368 27 30.780001223 34.560001373 26.5 30.780001223 34.695001379 26 
30.780001223 34.830001384 25.5 30.780001223 34.830001384 65 30.780001223 34.830001384 69.5 
30.915001228 33.075001314 30.5 30.915001228 33.615001336 29.5 30.915001228 33.750001341 29 
30.915001228 33.885001346 172.5 30.915001228 34.695001379 65.5 30.915001228 34.830001384 25.5 
30.915001228 34.830001384 69.5 31.050001234 32.805001304 31 31.050001234 32.805001304 31.5 
31.050001234 32.940001309 31 31.050001234 32.940001309 31.5 31.050001234 33.750001341 29 
31.050001234 33.885001346 172.5 31.050001234 34.695001379 65.5 31.050001234 34.830001384 70 
31.050001234 34.965001389 25 31.050001234 35.775001422 171.5 31.050001234 35.910001427 171.5 
31.185001239 32.670001298 31.5 31.185001239 32.805001304 32 31.185001239 33.750001341 28.5 
31.185001239 33.750001341 29 31.185001239 33.885001346 172.5 31.185001239 34.695001379 65.5 
31.185001239 34.830001384 70 31.185001239 35.100001395 24.5 31.185001239 36.045001432 171.5 
31.185001239 36.855001464 171 31.320001245 32.535001293 31.5 31.320001245 32.670001298 32 
31.320001245 33.750001341 28.5 31.320001245 33.750001341 29 31.320001245 34.020001352 172.5 
31.320001245 34.695001379 65.5 31.320001245 34.830001384 70 31.320001245 35.2350014 24 
31.320001245 35.370001405 24 31.320001245 36.180001438 171.5 31.320001245 36.315001443 171.5 
31.320001245 36.855001464 171 31.45500125 32.535001293 31.5 31.45500125 32.535001293 32 
31.45500125 33.615001336 29 31.45500125 33.750001341 28.5 31.45500125 34.020001352 172.5 
31.45500125 34.695001379 65.5 31.45500125 34.830001384 70 31.45500125 35.505001411 23.5 
31.45500125 35.640001416 23 31.45500125 35.775001422 23 31.45500125 35.910001427 22.5 
31.45500125 36.045001432 22 31.45500125 36.045001432 22.5 31.45500125 36.450001448 171.5 
31.45500125 36.855001464 171.5 31.590001255 32.400001287 32 31.590001255 33.615001336 29 
31.590001255 33.750001341 28.5 31.590001255 34.020001352 172.5 31.590001255 34.695001379 65.5 
31.590001255 34.830001384 70 31.590001255 36.180001438 21.5 31.590001255 36.180001438 22 
31.590001255 36.315001443 21 31.590001255 36.315001443 21.5 31.590001255 36.585001454 171.5 
31.590001255 36.720001459 171.5 31.725001261 32.130001277 32.5 31.725001261 32.265001282 32.5 
31.725001261 33.750001341 28.5 31.725001261 34.155001357 172.5 31.725001261 34.695001379 65.5 
31.725001261 34.830001384 70 31.725001261 36.450001448 21 31.725001261 36.585001454 171.5 
31.725001261 36.720001459 171.5 31.860001266 32.130001277 32.5 31.860001266 32.265001282 32.5 
31.860001266 34.290001363 172 31.860001266 34.695001379 65.5 31.860001266 34.830001384 70 
31.860001266 36.450001448 20.5 31.860001266 36.585001454 171.5 31.995001271 31.995001271 33 
31.995001271 32.130001277 33 31.995001271 34.425001368 172 31.995001271 34.695001379 65.5 
31.995001271 34.830001384 70 31.995001271 36.585001454 20.5 31.995001271 36.585001454 171.5 
32.130001277 31.995001271 33 32.130001277 32.130001277 33 32.130001277 34.560001373 172 
32.130001277 34.695001379 65.5 32.130001277 34.695001379 172 32.130001277 34.830001384 70 
32.130001277 34.830001384 172 32.130001277 36.450001448 171.5 32.130001277 36.720001459 20 
32.130001277 37.260001481 18 32.130001277 37.395001486 17.5 32.130001277 37.395001486 18 
32.130001277 37.530001491 17 32.130001277 37.530001491 17.5 32.265001282 31.995001271 33 
32.265001282 31.995001271 33.5 32.265001282 34.695001379 65.5 32.265001282 34.830001384 70.5 
32.265001282 34.965001389 172 32.265001282 35.100001395 172 32.265001282 36.315001443 171.5 
32.265001282 36.855001464 19.5 32.265001282 36.99000147 19 32.265001282 37.125001475 18.5 
32.265001282 37.665001497 16.5 32.265001282 37.665001497 17 32.400001287 31.995001271 33.5 
32.400001287 34.695001379 65.5 32.400001287 34.965001389 70.5 32.400001287 35.2350014 172 
32.400001287 35.370001405 172 32.400001287 35.910001427 171.5 32.400001287 36.045001432 171.5 
32.400001287 36.180001438 171.5 32.400001287 37.800001502 16 32.400001287 37.800001502 16.5 
32.535001293 31.995001271 33.5 32.535001293 34.560001373 66 32.535001293 34.965001389 70.5 
32.535001293 35.505001411 171.5 32.535001293 35.640001416 171.5 32.535001293 35.775001422 171.5 
32.535001293 37.800001502 16.5 32.670001298 31.860001266 34 32.670001298 34.425001368 66.5 
32.670001298 34.965001389 70.5 32.670001298 35.505001411 171.5 32.670001298 37.935001507 16 
32.805001304 31.860001266 34 32.805001304 34.425001368 66.5 32.805001304 34.965001389 70.5 
32.805001304 35.505001411 171.5 32.805001304 38.070001513 15.5 32.805001304 38.205001518 14.5 
32.805001304 38.205001518 15 32.940001309 31.860001266 34 32.940001309 31.860001266 34.5 
32.940001309 34.425001368 66.5 32.940001309 34.965001389 70.5 32.940001309 35.640001416 171.5 
32.940001309 37.935001507 38.5 32.940001309 38.070001513 38.5 32.940001309 38.205001518 38 
32.940001309 38.340001523 14 32.940001309 38.340001523 38 32.940001309 38.475001529 38 
32.940001309 38.610001534 38 32.940001309 38.74500154 37.5 33.075001314 31.860001266 34 
33.075001314 31.860001266 34.5 33.075001314 34.425001368 66.5 33.075001314 34.965001389 70.5 
33.075001314 35.640001416 171.5 33.075001314 37.395001486 39 33.075001314 37.530001491 39 
33.075001314 37.665001497 39 33.075001314 37.800001502 39 33.075001314 38.340001523 13.5 
33.075001314 38.880001545 37.5 33.075001314 39.01500155 37.5 33.075001314 39.150001556 37.5 
33.21000132 31.725001261 34.5 33.21000132 34.425001368 66.5 33.21000132 34.965001389 70.5 
33.21000132 35.640001416 171.5 33.21000132 37.260001481 39.5 33.21000132 38.475001529 13 
33.21000132 39.285001561 37.5 33.345001325 31.725001261 34.5 33.345001325 34.425001368 66.5 
33.345001325 34.965001389 70.5 33.345001325 35.640001416 171.5 33.345001325 37.125001475 39.5 
33.345001325 38.475001529 12.5 33.345001325 38.610001534 12 33.345001325 38.610001534 12.5 
33.345001325 39.420001566 37.5 33.48000133 31.725001261 34.5 33.48000133 31.725001261 35 
33.48000133 34.290001363 66.5 33.48000133 34.965001389 70.5 33.48000133 35.640001416 171.5 
33.48000133 36.99000147 39.5 33.48000133 38.610001534 11.5 33.48000133 38.610001534 12 
33.48000133 39.555001572 37.5 33.615001336 31.590001255 34.5 33.615001336 31.590001255 35 
33.615001336 34.290001363 66.5 33.615001336 34.965001389 70.5 33.615001336 35.640001416 171.5 
[...]
CELL_DATA 4503
SCALARS angle%0A[rad] double
LOOKUP_TABLE default
0 0.7853981634 0.463647609 0.3217505544 0.55707369363 0.64654869292 0.57509879215 0.52351060935 0.48711794325 
0.46257381698 0.44747769962 0.44009889219 0.68878782807 0.67003276408 0.65719455368 0.57435857077 0.56877410072 0.56865083068 
0.49409265615 0.49947522177 0.51123885489 0.43867857909 0.45626400972 0.48354691987 0.40580688732 0.44392727938 0.35488481363 
0.40996386723 0.29238287209 0.38059009514 0.62540083158 1.0254798344 0.7313269681 0.66321792684 0.71347007203 0.80850862235 
0.96857015236 1.2273960803 1.0962426454 0.6265848521 0.32491203587 0.30409960895 0.29813786029 0.79453969475 0.94000807113 
0.92242988108 0.38371336661 0.85244381685 0.38371336661 0.39340708365 0.62279375874 0.54206567948 0.78736248474 0.53822581613 
0.71343433379 0.74727178777 0.52961180492 0.73054688695 0.59909398119 0.71405049504 0.82379184906 0.69791489912 0.48820161327 
0.77553291544 0.76530602869 0.78031100753 0.74807636498 1.0080290936 1.0116137365 1.0633632363 1.0956947066 1.1776550919 
1.1459196713 1.2477181574 1.2340782659 1.2148522611 1.2274415466 1.2776428622 1.3554837962 0.90352225936 1.4719192934 
1.4476360536 1.3259575558 1.196513441 1.0605014473 0.90949771956 0.85625037549 0.78938530431 0.72435142791 0.73412991315 
0.69939076551 1.0396987442 1.128054896 1.1541687681 1.1813984378 1.2011191812 1.2207085133 1.2211677687 1.1875183255 
1.1830547063 1.2045891762 1.2217507596 1.1245311329 1.1028564809 1.0850167554 1.0553229732 0.83247336689 0.82070119231 
0.78293024899 0.74431594591 0.73569997644 0.6604631625 0.57644750229 0.62116057934 0.61666905384 0.4979117213 0.44502563114 
0.37686394452 0.45742065923 0.44127215459 0.32872711472 0.19640162628 0.34613974532 0.25741778538 0.22574556479 0.27260968454 
0.26180028141 0.36421633059 0.29355186124 0.27794743904 0.26191187594 0.24565237348 0.22951406821 0.18401423873 0.15749727324 
0.19849998425 0.19411313255 0.20624164196 0.31996047895 0.39237159405 0.16228759385 0.17090566804 0.21097838511 0.2746404151 
0.48332473454 0.56274312996 0.65056855304 0.3702607956 0.55647429282 0.95027840075 0.061250287431 0.052833082626 0.030580079544 
0.011163179645 0.025181049871 0.052919742346 0.23819724919 0.22899941135 0.21067481221 0.16688293634 0.12848197617 0.36424772797 
0.32664752568 0.28201615364 0.22889590273 0.14669946311 0.12121062356 0.15283325292 0.76641627194 0.70564280142 0.83119880408 
1.4250112488 1.4765177603 1.3276905258 1.1649065843 0.91247598759 0.7301590996 0.90423137288 0.73951023087 1.186311727 
0.42105714279 0.88998747844 0.36234662208 0.93626488671 1.0548990982 0.8977720524 0.43834690059 0.99875664775 0.97244206163 
0.39835092047 0.3761264389 0.1841176772 0.036323501973 0.23076415355 1.1294513234 0.95062784349 0.67522775923 0.62701300206 
0.54078694072 0.22264838179 0.42150665534 0.094585255607 0.089758177737 0.094585255607 0.10774762987 0.20452812247 0.076219594234 
0.085174925961 0.30810994611 0.32204213335 0.060300643582 0.038165226606 0.038165226606 0.038165226606 0.038165226606 0.038165226606 
0.13686081664 0.26505775269 0.2382227218 0.02699344294 0.053947605782 0.053947605782 0.053947605782 0.053947605782 0.053947605782 
0.053947605782 0.053947605782 0.053947605782 0.02699344294 0.044969663637 0.053947605782 0.067397766388 0.089758177737 0.13418873322 
0.26371184446 0.13686081664 0.26505775269 0.038165226606 0.038165226606 0.11052671408 0.060300643582 0.060300643582 0.13280214949 
0.30810994611 0.14463707788 0.18235017989 0.22668183069 0.084638093885 0.085174925961 0.085174925961 0.34453539477 0.10468549644 
0.14456648099 0.26904737072 0.02699344294 0.02699344294 0.02699344294 0.02699344294 0.038165226606 0.038165226606 0.2382227218 
0.2382227218 0.060300643582 0.21146365257 0.24267116418 0.076219594234 0.2164722586 0.097044096901 0.075739734269 0.19054454292 
0.12016592259 0.075739734269 0.11086736701 0.27538821927 0.13681347087 0.11086736701 0.13501352751 0.24038665306 0.32143665945 
0.043904211938 0.15612882983 0.12952311124 0.13299664049 0.28536186213 0.28536186213 0.10992301885 0.18864862103 0.18864862103 
0.16278140806 0.53759341451 0.053463555066 0.16501408116 0.056517905811 0.14438762946 0.11086736701 0.080823550303 0.15520541673 
0.32872661563 0.2166633112 0.02699344294 0.30810994611 0.097044096901 0.076219594234 0.071951149284 0.097044096901 0.097044096901 
0.097044096901 0.27023348116 0.097044096901 0.11405416391 0.22939042597 0.32204213335 0.060300643582 0.21146365257 0.080241127439 
0.20976423868 0.15652408488 0.27554342791 0.26904737072 0.060300643582 0.060300643582 0.084638093885 0.2164722586 0.095384107305 
0.28853223462 0.11405416391 0.097044096901 0.37497102456 0.3722811777 0.080823550303 0.080823550303 0.080823550303 0.080823550303 
0.14456648099 0.060300643582 0.10719529028 0.23671840152 0.060300643582 0.10468549644 0.02699344294 0.02699344294 0.02699344294 
0.2086005204 0.02699344294 0.080241127439 0.080823550303 0.080823550303 0.085174925961 0.085174925961 0.060300643582 0.060300643582 
0.060300643582 0.10776985396 0.082727380413 0.11994960785 0.2382227218 0.060300643582 0.13280214949 0.30810994611 0.097044096901 
0.19054454292 0.1441392266 0.23051588822 0.30943076714 0.28433832372 0.39884189272 0.47455077856 0.22454112 0.11405416391 
0.11405416391 0.076219594234 0.076219594234 0.089503207303 0.15223964833 0.14324501784 0.29810314132 0.11528739529 0.11664610271 
0.080241127439 0.080823550303 0.13130763869 0.13561634091 0.29810314132 0.13224159792 0.13224159792 0.10648276426 0.26332908673 
0.17917904214 0.16913163262 0.14438762946 1.3116511346 1.3236518533 1.2876483966 1.2573919846 1.2048523991 1.1766145927 
1.0014171694 0.96749497377 0.9131164818 0.87642835364 0.73924857153 0.67193879138 0.62550548743 0.59111512012 0.55847838842 
0.45629536765 0.4152672436 0.37626802572 0.33935193752 0.27787291417 0.26052864925 0.16786395876 0.20560547426 0.16957847557 
0.17359480247 0.18320633403 0.19808729185 0.33010660156 0.35514944947 0.38342915782 0.41531725261 0.1962061299 0.22002266948 
0.23394415565 0.27188728914 0.31746930219 0.37301881007 0.31996916472 0.40415022368 0.51327857921 0.6560763071 0.36723912997 
0.36723912997 0.15606065087 0.23531224273 0.058910677785 0.19966378087 0.074594457124 0.13418873322 0.12016592259 1.1554891017 
1.1566935212 1.1210076227 1.0711136034 1.0292137326 0.88368095688 0.84094905536 0.76725240807 0.72113763935 0.59692022932 
0.55119003982 0.4380049187 0.40878679815 0.3806503836 0.18499909235 0.13846588672 0.096936548888 0.033716465635 0.10298887794 
0.12317766914 0.30761001218 0.35122535497 0.39685198998 0.59888234046 0.64335309039 0.68796823596 0.7326628487 0.94638325516 
0.98617455873 1.025759961 1.06578242 1.1066798411 1.1342127169 1.0029780069 0.90018717609 0.93818591328 0.97610214038 
0.45418050156 0.44169490869 0.29695776738 0.30747712026 0.28317077938 0.31587763341 0.34365816669 0.4008865196 0.79512439873 
0.47161110837 0.73283626507 0.79192441836 1.0752250904 0.58122664274 0.096178529452 0.059866843129 0.069502118736 0.053463555066 
0.16913163262 0.14438762946 0.49506630715 0.57651391325 1.5977897697 0.26371184446 0.02699344294 0.16118217616 0.31765945024 
0.31765945024 0.23972523183 0.22679169691 0.21202617446 0.30616849403 0.35017589177 0.13418873322 0.16060473573 0.10310710873 
0.14296627563 0.27462745894 0.14545352549 0.25003006359 0.17917904214 0.20249286931 0.19229403557 0.18134806116 0.22286729794 
0.20783176403 0.062050098947 0 0.21318807457 0.17119215909 0.066793682133 0.024965232201 0.15156375429 0.15156375429 
0.19966378087 0.11405416391 0.19966378087 0.1754453996 0.51756776342 0.085174925961 0.1848348924 0.085174925961 0.32872661563 
0.085174925961 0.085174925961 0.080823550303 0.31263264304 0.1848348924 0.1848348924 0.14438762946 0.40128634115 0.097044096901 
0.44564284124 0.49782070557 1.5438421354 0.44424755896 1.4900898499 0.54167307533 0.59915070257 0.47381664614 0.58893290481 
0.4941950943 0.39035639736 0.61679104414 0.48134249719 0.27421824755 1.1296095506 1.1023905482 0.51393364228 0.43764002909 
1.0009735139 0.9670276387 0.94152485865 0.11780111943 0.29987299667 0.17535997653 0.089850491221 0.25418428309 0.84590175002 
0.089850491221 0.27742721212 0.8502421722 0.34967182834 0.20949593148 0.43507126613 0.16425333344 0.94389576545 0.97079567425 
0.49408508657 0.48990103191 0.45373510966 0.52338324081 0.61967432128 0.75622012977 0.70042479064 0.27926825839 0.2170840792 
0.22693817397 0.28558888124 0.2728249 0.28264096647 0.13662256902 0.099355463558 0.26073689678 1.5966731329 0.89812360583 
0.81988422321 0.78975358567 0.6760997423 0.59225118879 0.44546717462 1.0521224723 1.2721765234 1.5224652244 1.5618630743 
1.6188999659 1.6179916676 1.6469549478 1.4623130152 1.5073893748 1.8925468812 0.91280719813 0.88944609155 0.86687752041 
0.18086286678 0.1290625091 0.12232218823 0.12022936266 0.13379747542 0.039393974971 0.18161450407 0.24387488505 0.17793649419 
0.57080905366 0.077422803199 0.28884545722 0.8502421722 1.1949665918 1.8717744527 0.055811676889 0.17793649419 0.027042557665 
0.14275330175 0.84590175002 0.84590175002 1.6966868198 1.8667715146 0.081099634977 0.089482258754 1.8797645659 1.6654326325 
0.083239163041 1.6426468444 1.6339919599 0.089482258754 0.067129447302 0.16440885399 0.21134549955 0.28875183611 0.30388478151 
0.42660977474 0.14535166892 0.12960238805 1.6024257228 0.094295195795 0.030447813992 0.14317149943 0.15607433095 0.13965433165 
0.12373108297 0.12792650256 0.10067273813 0.11658791085 0.13033717645 0.1763774096 0.94610906954 0.87127129292 0.17708737576 
1.0098199194 0.96623578887 0.90433969986 0.81154173527 0.79558581745 0.75524963677 0.5834816116 0.52177719515 0.46598612368 
0.39624316812 0.33637509907 0.30346173063 0.20173251237 0.24910907115 0.16623161356 0.16812930057 0.14404944028 0.16311896096 
0.30385430404 0.3624698322 0.35453227094 0.38354035068 0.20293292716 0.13820257053 0.16240670141 0.16107016023 0.16407552572 
0.045703380923 0.053640738627 0.075221843538 0.099356436747 0.038303231972 0.1089792305 0.026395861296 0 0.27057763914 
0.24244744616 0.33588365347 0.33251937032 0.34199511016 0.40958440538 0.50411453001 0.50494671742 0.47534295304 0.47957795435 
0.56409364506 0.17295258961 0.10191434589 0.18168983736 0.13138674478 0.093177881912 0.5627307874 0.60855487984 0.59876582537 
0.61719437716 0.63283176923 0.74662095444 0.66705021942 0.68595939005 1.1465443817 1.0260208239 1.1071871084 0.31967749101 
0.8147904128 0.7894878484 0.7894878484 0.69306536233 1.2674807177 1.2361294787 0.15629466823 0.13377436797 0.15193588738 
0.13757844232 0.1790010981 0.18468853275 0.1660196772 0.15212438819 0.184176553 0.1457948258 0.22159121168 0.35074522543 
0.47711761863 0.20283938056 0.32143665945 0.079037675746 0.077045328277 0.059935262625 0.23420032889 0.30616849403 0.38401106799 
0.6158959503 0.72075280143 1.2924858014 1.2597860618 1.2277593566 0.62209290714 0.62209290714 0.73315979759 0.8196285627 
1.1885057165 0.66733386295 0.66733386295 0.64584333513 0.65720321824 0.5945033997 0.56899522705 0.47826483651 0.72624043685 
1.2518753528 1.2191631919 1.0259939576 0.64050482095 0.5066374865 0.65660190097 1.9887232412 1.9566012922 1.9262892193 
1.9038592157 1.8942057362 0.2084117689 0.78603459286 1.12720518 0.87362525656 1.6019614387 1.2103552996 1.1388954473 
1.1100493881 0.63190462379 0.63190462379 1.4121040324 0.63699031293 0.66477861685 0.59439067093 1.064549594 1.099900077 
1.2305230736 0.60483749999 0.61622423287 0.39805367407 0.75874422061 1.9052908525 1.8660196428 1.8360166167 1.77188006 
1.6986260588 0.37705878258 0.3892574312 0.3892574312 0.49491459229 0.5902762764 0.98357531342 0.73717112042 0.71114961571 
1.6703050306 2.1341744042 2.1676469022 2.2188450812 2.28687702 2.3811432347 2.5073666053 1.3583647906 1.6689515599 
1.6363500484 0.83226968701 0.92242988108 0.92242988108 0.51846337375 1.5441501035 0.6254962195 1.0560981326 0.51846337375 
1.5441501035 0.29880989349 0.36471094486 0.39105823359 0.21423436831 0.21170444861 1.4904380408 0.27833995242 0.53158553562 
1.5707963268 1.5438421354 0.38140488296 0.68080884835 0.46813983714 0.28433832372 0.30955323197 1.0881554507 1.6301231634 
0.12952311124 1.5707963268 1.5305724312 1.5072566756 0.26958079251 1.376898715 1.3482006458 1.3090433756 1.2684410641 
1.2525238451 1.2173139541 1.155212034 1.1291799043 1.0929531606 1.0578907269 0.94654469525 0.98895552664 0.99771615805 
0.9685981016 0.94080297744 0.89117142768 0.82831752983 0.8092722657 0.7802351324 0.76690314299 0.81020722159 0.77132285939 
0.75621046748 0.74200247322 0.72863216825 0.5881807907 0.4797444074 0.38873720299 0.31875756666 0.25518719134 0.12670711794 
0.032074908135 0.069984869818 0.19672075071 0.19672075071 0.19672075071 0.42510169052 0.25958492406 0.29810314132 0.66729735929 
1.4107069503 1.3845954757 1.3587383245 0.16501408116 0.69291684727 0.95632489256 0.27988947183 0.9489878776 0.26089926363 
0.24818831344 0.25754039386 0.25754039386 0.25754039386 0.28640713069 0.32265452044 0.31601645368 0.34761622037 0.37717140781 
0.25593416287 0.38436422009 0.076915225224 0.42510169052 1.5977897697 1.5707963268 0.28223601404 0.39105823359 1.6247439326 
0.52212672302 0.75985288237 0.39538076613 1.4633686237 1.651357175 0.85066799419 0.5914013199 1.4403260228 1.4776452005 
0.30051674271 0.72538863064 1.4102490991 1.3840661866 0.26732388278 0.36862024516 1.6244326355 1.4366558942 1.4368004839 
1.4368004839 1.5977897697 1.5977897697 0.059440763125 0.11600463648 1.516848721 0.80325019276 0.85031430462 0.82746655417 
0.9320357359 0.86172482923 0.78341619226 1.4774788849 0.35037895883 1.4107069503 1.3845954757 0.37717140781 1.7049367594 
0.45980213014 0.73752509327 1.11331239 0.95374145714 0.69212694148 0.67130465249 0.69791489912 0.20283938056 0.67611973382 
0.12952311124 1.054135941 1.1895160891 0.46813983714 1.5438028839 0.4411856743 1.516848721 0.4411856743 1.4899727765 
0.4411856743 1.4899727765 0.4411856743 1.4899727765 0.4411856743 1.4899727765 0.4411856743 1.4899727765 0.46813983714 
1.4899727765 1.5438028839 1.516848721 0.6812584777 0.059758297912 0.99135044402 0.9914675273 1.0500328038 0.96678364401 
1.0077671879 1.17034166 1.0641727821 1.0500328038 0.96678364401 1.0077671879 1.6697082896 0.81817504787 1.4359181393 
1.4377996863 0.34761622037 0.49665926346 0.52484949817 0.52484949817 0.52484949817 0.52484949817 0.54946521852 0.537449133 
0.52617284847 0.51557394064 0.44752260137 0.43974019376 0.41028830044 0.40737956881 0.40817512423 0.38585212907 0.363827253 
0.36777844587 0.3474095059 0.32758370811 0.30841499376 0.23079584572 0.23959248969 0.24916770054 0.25987051365 0.14006635212 
1.4107069503 0.14394955944 0.17119215909 1.4906962467 0.44248759321 1.491008477 0.47046917308 1.1443026884 1.0918611896 
1.1002672116 0.36321999205 0.47141083022 0.58860031032 1.1913425382 1.7190833816 0.49782070557 0.68260293544 0.49782070557 
0.26904737072 0.68260293544 0.2382227218 0.16118217616 0 1.5438127128 1.5168683361 0.65429035027 1.5438127128 
1.5168683361 0.076219594234 0.35880277141 1.5707963268 1.541136935 1.4816741189 1.4900020926 1.4632522032 1.4366558942 
0.059131775701 0.25005514366 1.6302986168 1.6005738288 0.076219594234 0.91749877882 0.86539835476 0.83998647546 0.61333133007 
1.6306975992 1.6372572693 0.24477268794 0.25710925535 0.27069635122 0.21561629758 0.35481121832 0.32491203587 1.5169270532 
1.4900898499 1.5977016937 1.5707963268 0.68260293544 1.5707963268 1.5438421354 1.5169270532 0.60608691097 1.5707963268 
0.57139578102 0.72922684683 0.12845150078 0.35888777867 1.5898824142 0.38436422009 1.3840661866 1.4209440303 1.1857659439 
0.66105174706 1.5175416654 0.12071212342 0.24322774872 1.8562831381 1.2497297214 1.8221799151 1.2206764115 1.1913425382 
1.131815513 1.6716454217 1.6381558567 1.5438127128 1.5438421354 1.5438421354 0.68260293544 1.5438421354 0.4710068735 
1.5438421354 1.5438421354 0.51914644262 0.96944596379 1.6205388889 1.6130456637 1.5471040103 0.89720206721 0.37796810638 
0.49544074657 0.075739734269 0.43834690059 0.33070349239 0.3067210076 0.5227590528 0.81316565829 0.72268760139 0.72268760139 
0.33070349239 0.19679560454 0.090505935959 0.43339976742 0.085174925961 0.48854386873 0.2843405425 0.35127193336 0.32741470956 
0.49782070557 1.5438421354 0.43266651273 0.22934168176 0.24480862861 0.32796900467 0.26671665735 0.32491203587 1.5707963268 
1.5438909599 1.5170244902 0.19548252612 0.15884263912 0.13362466204 0.18537853753 0.16769098408 1.4116110221 1.5977016937 
0.83489537758 0.46454128488 0.36020118026 0.8812289749 1.3254460431 1.7688547063 1.787468916 1.2363995807 1.175439506 
1.5169270532 1.5169270532 1.5169270532 1.5169270532 1.5169270532 1.5169270532 1.6380415367 1.5707963268 0.12659852209 
0.038165226606 0.038165226606 1.5438028839 1.5168683361 0.46885929269 0.46885929269 0.2164722586 0.41758420441 1.4900898499 
0.22454112 0.34624332664 1.5707963268 0.5227590528 0.5227590528 0.13686081664 0 0.46635260199 0.36475182886 
0.11052671408 0.15347190316 0.51914644262 0.2382227218 0.46885929269 1.437917595 1.3714397522 0.17596134274 0.18809293341 
0.20362814798 1.7046333809 1.619529351 0.29096147926 0.73717051069 1.597633783 1.5707963268 0.41430972978 1.4632133122 
0.19966378087 0.16757402076 0.16769098408 0.58824654866 1.6244326355 1.4116110221 1.6247439326 1.5977897697 0.67869289495 
1.5175416654 0.78903190073 0.76577696284 1.3810432196 1.2667851323 1.7522194636 1.4440504848 1.8908532537 1.8616878669 
1.8114181172 1.7062811082 1.516848721 1.4900020926 0.65429035027 1.5168683361 1.4900020926 1.5168683361 0.46885929269 
1.5168683361 1.5168683361 1.4900898499 1.4633686237 1.4633686237 1.5409259794 1.5111088401 0.47309333351 1.5707963268 
1.5707963268 0.54908088586 0.54908088586 0.35878817156 0.44195425541 0.11052671408 0.5227590528 0.70822760275 0.70822760275 
1.5438421354 0.32658660225 0.28853223462 1.5168683361 1.5168683361 1.5707963268 1.5707963268 0.34326783803 0.5227590528 
0.59668282743 0.58757526647 0.85733243776 0.47309333351 1.5409259794 0.63079920291 0.24813349987 0.41513196392 1.4632133122 
1.6242598819 1.5975472202 0.74341112143 0.29096147926 0.74341112143 1.4900020926 0.35834736454 1.3856406889 0.57595683038 
0.57651391325 1.0142963448 1.6247439326 1.6247439326 1.6247243175 1.6515028037 1.6246656004 1.6511546128 0.84524445831 
0.80888535764 0.78903190073 0.39189062581 1.7165083773 1.4813975502 1.5438127128 1.5168683361 0.49580749044 1.5168683361 
0.52212672302 1.5438127128 1.5977897697 1.5977897697 0.30810994611 0.36321999205 0.5923982948 1.5169270532 1.5438127128 
1.5168683361 1.5438127128 1.5438127128 1.5438127128 1.5707963268 0.70949949538 1.5707963268 1.5438127128 0.35699720926 
1.4813975502 0.15520541673 0.21146365257 0.41513196392 1.4900020926 0.22373423051 0.41513196392 0.47212087108 1.4632522032 
0.18624872123 0.11885798459 0.0095235215936 0.0051813007842 0.022723360842 0.043996746866 0.070306464119 0.061148162649 0.037896539839 
0.0056496574036 0.041933445873 0.11870533714 0.26060239175 0.58235294614 1.7009771523 1.5885162023 1.4900020926 1.4900020926 
1.4632522032 1.4632522032 1.4366558942 1.4632522032 1.4366558942 1.4632522032 1.4946320215 1.4633686237 1.4368004839 
1.3362764798 1.3153459522 1.437040431 0.18835430889 0.1754453996 0.3693450874 1.437040431 0.1754453996 0.57817869461 
1.5977799408 1.5707963268 0.58093201168 1.651357175 0.58093201168 1.6245681634 1.6245681634 1.6245681634 0.39875093384 
0.30810994611 1.6536176672 0.44424755896 0.29096147926 0.33474934859 0.1991341778 0.65178962492 0.12952311124 0.12952311124 
0.10310710873 0.33323132625 0.41310775666 0.59116630493 0.52916897984 1.5707963268 0.36189117792 0.28223601404 0.063553907519 
0.060318182082 0.072594773962 0.093718826816 0.13686081664 0.26505775269 0.19054454292 0.16501408116 0.30855973111 0.39105823359 
0.33505919214 0.41758420441 0.33505919214 0.50708636643 1.5169270532 1.5168683361 1.4900020926 0.49611250544 1.760423796 