# vtk DataFile Version 5.1
vtk output
ASCII
DATASET POLYDATA
POINTS 9596 double
6.4800002575 38.610001534 121 6.4800002575 38.74500154 121 6.6150002629 38.880001545 121.5 
6.6150002629 39.01500155 121.5 6.6150002629 39.150001556 121.5 6.6150002629 39.285001561 122 
6.6150002629 39.420001566 122 6.6150002629 39.555001572 122.5 6.6150002629 39.690001577 122.5 
6.6150002629 39.825001583 123 6.6150002629 39.960001588 123 6.6150002629 40.095001593 123 
6.7500002682 40.230001599 123.5 6.7500002682 40.365001604 123.5 6.7500002682 40.500001609 123.5 
6.7500002682 40.635001615 124 6.7500002682 40.77000162 124 6.8850002736 40.905001625 124.5 
6.8850002736 41.040001631 124.5 6.8850002736 41.175001636 124.5 6.8850002736 41.310001642 125 
6.8850002736 41.445001647 125 7.0200002789 41.580001652 125.5 7.0200002789 41.715001658 125.5 
7.0200002789 41.850001663 125.5 7.0200002789 41.985001668 126 7.0200002789 42.120001674 126 
7.1550002843 42.255001679 126 7.1550002843 42.390001684 126.5 7.1550002843 42.52500169 126.5 
7.1550002843 42.660001695 127 7.1550002843 42.795001701 127 7.1550002843 42.930001706 127 
7.2900002897 43.065001711 127.5 7.2900002897 43.200001717 127.5 7.2900002897 43.335001722 127.5 
7.2900002897 43.470001727 128 7.2900002897 43.605001733 128 7.425000295 43.740001738 128.5 
7.425000295 43.875001743 128.5 7.5600003004 44.010001749 128.5 7.6950003058 44.145001754 129 
7.6950003058 44.28000176 129 7.8300003111 44.415001765 129 7.9650003165 29.025001153 42.5 
7.9650003165 29.025001153 43 7.9650003165 31.185001239 11.5 7.9650003165 31.185001239 12 
7.9650003165 31.185001239 12.5 7.9650003165 31.185001239 13 7.9650003165 44.55000177 129 
8.1000003219 28.890001148 41 8.1000003219 28.890001148 41.5 8.1000003219 28.890001148 42 
8.1000003219 29.160001159 43.5 8.1000003219 29.160001159 44 8.1000003219 31.185001239 9.5 
8.1000003219 31.185001239 10 8.1000003219 31.185001239 10.5 8.1000003219 31.185001239 11 
8.1000003219 31.320001245 13.5 8.1000003219 31.320001245 14 8.1000003219 31.320001245 14.5 
8.1000003219 44.685001776 129.5 8.1000003219 44.820001781 129.5 8.2350003272 28.620001137 38.5 
8.2350003272 28.620001137 39 8.2350003272 28.755001143 39.5 8.2350003272 28.755001143 40 
8.2350003272 28.755001143 40.5 8.2350003272 29.295001164 44.5 8.2350003272 31.050001234 7.5 
8.2350003272 31.050001234 8 8.2350003272 31.050001234 8.5 8.2350003272 31.050001234 9 
8.2350003272 31.45500125 15 8.2350003272 31.590001255 15.5 8.2350003272 31.590001255 16 
8.2350003272 44.955001786 129.5 8.3700003326 27.94500111 62 8.3700003326 28.485001132 37 
8.3700003326 28.485001132 37.5 8.3700003326 28.485001132 38 8.3700003326 29.295001164 44.5 
8.3700003326 31.050001234 5.5 8.3700003326 31.050001234 6 8.3700003326 31.050001234 6.5 
8.3700003326 31.050001234 7 8.3700003326 31.725001261 16.5 8.3700003326 31.725001261 17 
8.3700003326 31.725001261 17.5 8.3700003326 45.090001792 129.5 8.505000338 27.94500111 62 
8.505000338 28.215001121 34.5 8.505000338 28.215001121 35 8.505000338 28.350001127 35.5 
8.505000338 28.350001127 36 8.505000338 28.350001127 36.5 8.505000338 29.430001169 45 
8.505000338 30.915001228 0.5 8.505000338 31.050001234 3.5 8.505000338 31.050001234 4 
8.505000338 31.050001234 4.5 8.505000338 31.050001234 5 8.505000338 31.860001266 18 
8.505000338 31.995001271 18.5 8.505000338 31.995001271 19 8.505000338 45.225001797 130 
8.505000338 45.360001802 130 8.505000338 45.630001813 87 8.6400003433 27.94500111 33 
8.6400003433 27.94500111 62 8.6400003433 28.080001116 33.5 8.6400003433 28.080001116 34 
8.6400003433 29.565001175 45.5 8.6400003433 30.915001228 0.5 8.6400003433 30.915001228 1.5 
8.6400003433 30.915001228 2 8.6400003433 30.915001228 2.5 8.6400003433 30.915001228 3 
8.6400003433 32.130001277 19.5 8.6400003433 32.130001277 20 8.6400003433 32.130001277 20.5 
8.6400003433 45.495001808 87.5 8.6400003433 45.495001808 130 8.7750003487 27.540001094 31 
8.7750003487 27.6750011 31.5 8.7750003487 27.810001105 32 8.7750003487 27.94500111 32.5 
8.7750003487 28.080001116 62 8.7750003487 29.565001175 45.5 8.7750003487 30.915001228 0.5 
8.7750003487 30.915001228 1 8.7750003487 32.265001282 21 8.7750003487 32.400001287 21.5 
8.7750003487 32.400001287 22 8.7750003487 45.360001802 88 8.7750003487 45.630001813 130.5 
8.7750003487 45.765001819 130.5 8.9100003541 26.865001068 0.5 8.9100003541 26.865001068 1 
8.9100003541 26.865001068 1.5 8.9100003541 26.865001068 2 8.9100003541 27.000001073 2.5 
8.9100003541 27.000001073 3 8.9100003541 27.000001073 3.5 8.9100003541 27.000001073 4 
8.9100003541 27.000001073 4.5 8.9100003541 27.000001073 5 8.9100003541 27.000001073 5.5 
8.9100003541 27.135001078 6 8.9100003541 27.135001078 6.5 8.9100003541 27.135001078 7 
8.9100003541 27.135001078 29 8.9100003541 27.270001084 29.5 8.9100003541 27.405001089 30 
8.9100003541 27.540001094 30.5 8.9100003541 28.080001116 62 8.9100003541 29.565001175 46 
8.9100003541 32.535001293 22.5 8.9100003541 32.535001293 23 8.9100003541 32.535001293 23.5 
8.9100003541 45.360001802 88 8.9100003541 45.900001824 130.5 9.0450003594 26.730001062 27 
9.0450003594 26.865001068 27.5 9.0450003594 27.000001073 19.5 9.0450003594 27.000001073 20 
9.0450003594 27.000001073 28 9.0450003594 27.135001078 7.5 9.0450003594 27.135001078 8 
9.0450003594 27.135001078 8.5 9.0450003594 27.135001078 9 9.0450003594 27.135001078 9.5 
9.0450003594 27.135001078 17.5 9.0450003594 27.135001078 18 9.0450003594 27.135001078 18.5 
9.0450003594 27.135001078 19 9.0450003594 27.135001078 28.5 9.0450003594 27.270001084 10 
9.0450003594 27.270001084 10.5 9.0450003594 27.270001084 11 9.0450003594 27.270001084 11.5 
9.0450003594 27.270001084 12 9.0450003594 27.270001084 12.5 9.0450003594 27.270001084 13 
9.0450003594 27.270001084 15.5 9.0450003594 27.270001084 16 9.0450003594 27.270001084 16.5 
9.0450003594 27.270001084 17 9.0450003594 27.405001089 13.5 9.0450003594 27.405001089 14 
9.0450003594 27.405001089 14.5 9.0450003594 27.405001089 15 9.0450003594 28.080001116 62.5 
9.0450003594 29.70000118 46.5 9.0450003594 32.400001287 24 9.0450003594 45.225001797 88.5 
9.0450003594 46.035001829 130.5 9.1800003648 26.595001057 25 9.1800003648 26.595001057 25.5 
9.1800003648 26.595001057 26 9.1800003648 26.730001062 23 9.1800003648 26.730001062 23.5 
9.1800003648 26.730001062 24 9.1800003648 26.730001062 24.5 9.1800003648 26.730001062 26.5 
9.1800003648 26.865001068 20.5 9.1800003648 26.865001068 21 9.1800003648 26.865001068 21.5 
9.1800003648 26.865001068 22 9.1800003648 26.865001068 22.5 9.1800003648 28.080001116 62.5 
9.1800003648 29.70000118 46.5 9.1800003648 32.265001282 24.5 9.1800003648 32.265001282 25 
9.1800003648 32.265001282 25.5 9.1800003648 45.225001797 88.5 9.1800003648 46.170001835 131 
9.1800003648 46.30500184 131 9.1800003648 47.520001888 118 9.1800003648 47.655001894 117.5 
9.1800003648 47.790001899 117 9.1800003648 47.925001904 116.5 9.1800003648 48.06000191 116 
9.1800003648 48.195001915 115.5 9.1800003648 48.33000192 115 9.1800003648 48.465001926 114 
9.1800003648 48.465001926 114.5 9.3150003701 28.080001116 62.5 9.3150003701 29.835001186 47 
9.3150003701 32.130001277 26 9.3150003701 32.130001277 26.5 9.3150003701 32.130001277 27 
9.3150003701 45.090001792 89 9.3150003701 46.440001845 121.5 9.3150003701 46.440001845 122 
9.3150003701 46.440001845 131 9.3150003701 46.575001851 121 9.3150003701 46.575001851 122.5 
9.3150003701 46.575001851 123 9.3150003701 46.575001851 123.5 9.3150003701 46.575001851 124 
9.3150003701 46.710001856 120.5 9.3150003701 46.710001856 124.5 9.3150003701 46.710001856 125 
9.3150003701 46.710001856 125.5 9.3150003701 46.710001856 126 9.3150003701 46.845001861 120 
9.3150003701 46.980001867 119.5 9.3150003701 47.115001872 119 9.3150003701 47.250001878 118.5 
9.3150003701 47.385001883 118 9.3150003701 48.195001915 112.5 9.3150003701 48.33000192 113 
9.3150003701 48.33000192 113.5 9.4500003755 28.080001116 62.5 9.4500003755 29.835001186 47 
9.4500003755 31.995001271 27.5 9.4500003755 31.995001271 28 9.4500003755 44.955001786 89.5 
9.4500003755 46.575001851 131.5 9.4500003755 46.845001861 126.5 9.4500003755 46.845001861 127 
9.4500003755 46.845001861 127.5 9.4500003755 46.980001867 128 9.4500003755 46.980001867 128.5 
9.4500003755 46.980001867 129 9.4500003755 46.980001867 129.5 9.4500003755 47.115001872 130 
9.4500003755 48.06000191 110.5 9.4500003755 48.06000191 111 9.4500003755 48.195001915 111.5 
9.4500003755 48.195001915 112 9.5850003809 28.080001116 62.5 9.5850003809 29.970001191 47.5 
9.5850003809 31.860001266 29 9.5850003809 31.860001266 29.5 9.5850003809 31.995001271 28.5 
9.5850003809 44.955001786 89.5 9.5850003809 46.710001856 131.5 9.5850003809 46.845001861 131.5 
9.5850003809 47.115001872 130.5 9.5850003809 47.925001904 109 9.5850003809 47.925001904 109.5 
9.5850003809 48.06000191 110 9.7200003862 28.080001116 62.5 9.7200003862 30.105001196 48 
9.7200003862 31.860001266 30 9.7200003862 31.860001266 30.5 9.7200003862 44.820001781 90 
9.7200003862 46.980001867 130.5 9.7200003862 46.980001867 131.5 9.7200003862 47.790001899 108 
9.7200003862 47.790001899 108.5 9.8550003916 28.080001116 62.5 9.8550003916 30.105001196 48 
9.8550003916 31.725001261 31 9.8550003916 31.725001261 31.5 9.8550003916 44.685001776 90 
9.8550003916 46.980001867 130.5 9.8550003916 46.980001867 131 9.8550003916 47.115001872 132 
9.8550003916 47.250001878 132 9.8550003916 47.655001894 106.5 9.8550003916 47.655001894 107 
9.8550003916 47.790001899 107.5 9.990000397 28.215001121 63 9.990000397 30.240001202 48.5 
9.990000397 31.860001266 32 9.990000397 44.55000177 90.5 9.990000397 46.845001861 130.5 
9.990000397 47.385001883 132 9.990000397 47.520001888 105 9.990000397 47.520001888 105.5 
9.990000397 47.520001888 106 10.125000402 28.215001121 63 10.125000402 30.240001202 48.5 
10.125000402 31.995001271 32.5 10.125000402 44.55000177 90.5 10.125000402 46.845001861 130.5 
[...]
CELL_DATA 9595
SCALARS angle%0A[rad] double
LOOKUP_TABLE default
0 1.6247243175 1.651590561 0.57651391325 0.19003478073 0.14619463822 0.15062585505 0.13741460972 0.070218603927 
0.066296177676 0.08107457975 0.080849700714 0.026866243494 0.026866243494 0.026866243494 0.026866243494 0.026866243494 0.026866243494 
0.060283087213 0.060283087213 0.080794234205 0.11106313358 0.097106150474 0.097106150474 0.18014091779 0.18014091779 0.15657771619 
0.19296321681 0.13374807658 0.13374807658 0.17048479246 0.096141352547 0.059758297912 0.095857066332 0.026521389546 0.026521389546 
0.058779270066 0.026523130224 0.026521389546 0.059657551302 0.13285449766 0.11019221081 0.084712172153 0.16025958137 0.18928458788 
0.18928458788 0.26665772736 0.24219702732 0.22039079554 0.18732405944 0.11067636926 0.10719574218 0.10719574218 0.053520829734 
0.026721977225 0.02656813986 0.11021269914 0.14371756536 0.13585431676 0.20247564397 0.22769542238 0.23614442755 0.2700619037 
0.31532733702 0.33817473939 0.30350634952 0.25382901101 0.21919798556 0.21919798556 0.1607319123 0.12919973326 0.11117503721 
0.078341585312 0.034143593728 0.056402866779 0.056402866779 0.08598690173 0.08598690173 0.11101352805 0.11101352805 0.14639671461 
0.10178740895 0.14028313546 0.16114966481 0.20602751441 0.17185057562 0.18849261239 0.16081280367 0.16081280367 0.14057910917 
0.11989036379 0.16077795512 0.12297372248 0.12197583693 0.10178091298 0.083870812017 0.063400851358 0.063400851358 0.030168752984 
0.030168752984 0.030168752984 0.030168752984 0.030168752984 0.030168752984 0.062589885941 0.029778367747 0.13845888325 0.16812216338 
0.14300419856 0.29253230015 0.22235614855 0.29253230015 0.29253230015 0.31614236358 0.44794523374 0.44794523374 0.46983759122 
0.44911716018 0.42206102078 0.39572298116 0.44408360584 0.39788116554 0.37265192358 0.31275720303 0.28691311142 0.33041439385 
0.28372626636 0.25852378225 0.23426885123 0.158680041 0.25477127575 0.158680041 0.158680041 0.13468043672 0.15515056902 
0.11182966735 0.090148918054 0.033393360964 1.4901161194e-08 0.020794954417 0.036317982294 0.033393360964 0.033393360964 0.041450826089 
0.055566973747 0.041450826089 0.033393360964 0.033393360964 0.036317982294 0.10373397995 0.10078994332 0.10078994332 0.10078994332 
0.099500064028 0.13621336823 0.13464253129 0.13464253129 0.13280664985 0.13621336823 0.13464253129 0.13510175829 0.2022702946 
0.2022702946 0.19989126662 0.2022702946 0.2022702946 0.2022702946 0.19989126662 0.25692805913 0.20249834065 0.20249834065 
0.20249834065 0.22184882683 0.10148035128 0.13510175829 0.13951139251 0.13951139251 0.14335076409 0.10620366954 0.10620366954 
0.10620366954 0.11227189779 0.10620366954 0.073393763478 0.042324047929 0.042324047929 0.042324047929 0.042324047929 0.042324047929 
0.042324047929 0.073841938241 0.068972576989 0.021862896384 0.021862896384 0.021862896384 0.22835763432 0.16421875134 0.17615824754 
0.16184373144 0.16184373144 0.32247834517 0.32247834517 0.33712463119 0.33712463119 0.47411561048 0.47411561048 0.47411561048 
0.47411561048 0.48637144702 0.61133263778 0.62130059336 0.62130059336 0.59659221688 0.73173556702 0.73498771019 0.73856070213 
0.74249133204 0.70389499711 0.69134188251 0.57412701226 0.57862140014 0.57095305851 0.57721172735 0.58265907454 0.54707228288 
0.54033376129 0.41302413115 0.41954867147 0.39802141558 0.4033425672 0.40281408138 0.3726986439 0.27443453866 0.26029365289 
0.2719781846 0.28931124254 0.25526433059 0.27042522546 0.2338775061 0.16077829889 0.11412863042 0.14109484899 0.26272842539 
0.14550171436 0.43925844926 0.077764939603 0.20211993415 0.051237167403 0.3729877218 0.051237167403 0.43833655986 1.5006239629 
1.3910996071 1.2391545335 1.1197106649 0.93766121538 0.74389740086 0.50586457673 0.30126284536 0.30166328993 0.16129865946 
0.053810620226 0.038137461491 0.038371850071 0.034385539271 0.040219610243 0.048385084573 0.060300643582 0.060300643582 0.038165226606 
0.038165226606 0.038165226606 0.17631202084 0.20397614178 0.16365294081 0.21202617446 0.30616849403 0.32872661563 0.20986122315 
0.13464622533 0.1111128859 0.085224345466 0.097041371296 0.13418676777 0.09628665457 0.11080209584 0.078703877829 0.087385468489 
0.026607487527 0.095384107305 0.17304475305 0.22213630527 0.27023348116 0.11164678258 0.024268137801 0.027711832049 0.04010597587 
0.038054528324 0.042471724507 0.064676540544 0.09661420808 0.085174925961 0.30810994611 0.14175083756 0.15606017363 0.12697554256 
0.13342088211 0.1729182531 0.15074736538 0.053365182918 0.18288829416 0.46318552299 0.61760785137 0.70962069401 0.38429210927 
0.063350730054 0.10742770308 0.15652408488 0.10226701548 0.15652408488 0.10758301464 0.097987125464 0.081166753238 0.079037675746 
0.012665686715 0.038054528324 0.042510362175 0.089842952158 0.085174925961 0.085174925961 0.060300643582 0.060300643582 0.038165226606 
0.038165226606 0.038165226606 0.038165226606 0.038165226606 0.038165226606 0 0.2964676869 0.31002602608 0.27321480442 
0.32658660225 0.28853223462 0.25069766495 0.1102497728 0.17886028564 0.17886028564 0.17886028564 0.20783050579 0.19167616808 
0.15083382296 0.15576179238 0.12013463497 0.088456540907 0.042271231424 0.02840972294 0.026954191393 0.030122938768 0.068312304488 
0.060300643582 0.060300643582 0.11119839712 0.12428860822 0.14619463822 0 0 0.080823550303 0.060300643582 
0.030126978516 0.047693514337 0.054494233007 0.063553907519 0.060318182082 0.072594773962 0.10468549644 0.14456648099 0.4255832223 
0.053616132889 0.060108489129 0.060195649093 0.05377183659 0 0.026866243494 0.038054528324 0.026866469683 0.026866469683 
0.038054528324 0.026749889395 0.026866469683 0.026837203318 0.026837203318 0.026866469683 0.033975553283 0.051117987467 0.015804469546 
0.012662024459 0.053558429449 0.042510362175 0.063126523919 0.075739734269 0.2164722586 1.7142289274 1.6948889881 1.6761699844 
1.6351783154 1.6080430567 1.5811823062 1.5452760317 1.5135422314 1.4848317435 1.4469534508 1.3802926959 1.3507708491 
1.3123253152 0.99895114254 0.85091965256 0.81827699264 0.79450666712 0.63779500256 0.72346448436 0.71089137652 0.55623968055 
0.55065653274 0.5395218131 0.52572356389 0.38798411573 0.38267383687 0.370761641 0.24444097847 0.24416726293 0.23885528445 
0.24430953368 0.13444579582 0.13444579582 0.13205891009 0.13444579582 0.13205891009 0.12903741613 0.018303064964 0.021316308703 
0.030514471651 0 0.012870377296 0.025012460712 0.12303038666 0.13205891009 0.13444579582 0.12303038666 0.13205891009 
0.13444579582 0.13205891009 0.12903741613 0.13205891009 0.12903741613 0.12903741613 0.12303038666 0.12903741613 0.041019509046 
0.058858947368 0.030514471651 0.041315065346 0.052368903977 0.022757416815 0.14209659368 0.14209659368 0.13205891009 0.14209659368 
0.12903741613 0.14209659368 0.13205891009 0.12903741613 0.12903741613 0.12303038666 0.12447884314 0.1202366296 0.11125563881 
0.11077500999 0.10569813272 0.097045614001 0.078592526044 0.065034951923 0.058334240793 0.061065608552 0.081893285919 0.082756046774 
0.088050270655 0.11272293484 0.26640132947 0.25948007898 0.25283605487 0.24507382472 0.26408518457 0.25499396184 0.24507382472 
0.27330085572 0.25243470125 0.23715872402 0.27424498265 0.24109266473 0.11363218557 0.36915623408 0.36915623408 1.4901161194e-08 
0.010900848809 1.4901161194e-08 0.24275107892 0.13864191393 0.13709503829 0.13340179409 0.12903741613 0.13516011978 0.12903741613 
0.13516011978 0.13516011978 0.13516011978 0.13173727821 0.14534243233 0.11421560772 0.096248278459 0.10869469798 0.057148380512 
0.080011913771 0.10869469798 0.069509113462 0.080011913771 0.069509113462 0.13285757657 0.15402778797 0.1458511578 0.15894127884 
0.1458511578 0.15894127884 0.17361375446 0.18278620636 0.17361375446 0.18278620636 0.17513292327 0.18335699268 0.26175975879 
0.097669457437 0.068802073864 0.097669457437 0.068802073864 0.13110771912 0.13255739262 0.14469354979 0.13532281756 0.15812598734 
0.12913550881 0.14691868445 0.12913550881 0.13979472567 0.12913550881 0.13979472567 0.12913550881 0.13474481284 0.12782491303 
0.13474481284 0.1356905553 0.027030132745 0.031427304101 0.016158832366 0.016158832366 0 0.016158832366 0.016158832366 
0.031427304101 0.027030132745 0.14551698343 0.15543718101 0.16644048408 0.17852261131 0.093417936872 0.085367965931 0.079612365326 
0.0675104255 0.064074971661 0.045353637508 0.048854463417 0.017164845618 0.044012808884 0.030634333324 0.081220213675 0.094746504567 
0.23743376701 0.27840318309 0.32303793281 0.3901767004 0.25877986471 0.24951235948 0.27820496131 0.24951235948 0.40448454095 
1.6999097441 1.4783301566 1.4225073381 1.4873194115 1.4605725425 1.4481936308 1.2308787597 1.2241586945 1.1587595229 
0.92815689797 0.90808932139 0.89701551417 0.81559395559 0.58916968616 0.75555070841 0.73851783795 0.48303716308 0.51984916975 
0.61869223991 0.63587572591 0.35314488793 0.33889926754 0.37472435376 0.38496844654 0.30081846968 0.40254257804 0.38746842697 
0.36473165965 0.41509904276 0.25156779112 0.25151014208 0.2621370422 0.25212559902 0.25909457276 0.26393130354 0.16359489087 
0.18637997895 0.09774288069 0.16251822491 0.18669392679 0.070235583933 0.066096918465 0.077548686272 0.063891381028 0.067046685054 
0.026432402388 0.026432402388 0.051935182434 0.070388193321 0.053232344181 0.067495581421 0.032623988704 0.03207621567 0.09418461829 
0.071381471931 0.10863810236 0.049454978559 0.048322613694 0.10024380737 0.020018038713 0.26832143371 0.1736581282 0.202662725 
0.99346004109 1.908138182 1.8826711776 1.9679954749 1.9573722577 1.9290128613 1.9015188443 1.8673719657 1.6202381579 
1.5331501259 1.4981085935 1.5685419544 1.4637354723 1.4456588919 1.4303841815 0.98773407217 0.96058920601 0.77864469076 
0.86621354975 0.86554114391 0.70295611042 0.69430050755 0.7035944671 0.23288077797 0.10652079095 0.21996652585 0.24662579379 
0.14351516227 0.14351516227 0.1574867455 0.1574867455 0.1297859904 0.10056841254 0.077706486371 0.061407960899 0.08027284584 
0.10126942117 0.19237073488 0.15756190769 0.12679278833 0.082481340195 0.05466565254 0.084816029341 0.11859005431 0.24492767591 
0.24059666554 0.19084582239 0.1420404538 0.10684936576 0.10016521683 0.14631959795 0.54281082733 0.53477759995 0.51395977892 
0.58802892957 0.50280891013 0.10016521683 0.22152547879 0.27148188992 0.6255121138 0.6255121138 0.60626437264 0.58802892957 
0.03369237079 0.10016521683 0.11180292765 0.18738657671 0.16647614814 0.12472689954 0.082481340195 0.09048368952 0.10608750206 
0.12323934623 0.24892228963 0.22151209511 0.17372281954 0.15256863848 0.090070842624 0.095219155761 0.15689839114 0.54281082733 
0.53622476343 0.611755041 0.59269992618 0.57466523452 0.059947517723 0.17119986461 0.17119986461 0.1362266894 0.1257772204 
0.10441397755 0.092350666506 0.15103335183 0.19258834238 0.19258834238 0.16418067461 0.15551503229 0.20110989987 0.1922323103 
0.18506918843 0.20914102 0.20914102 0.19327109184 0.18618347979 0.16954767827 0.16131172007 0.15503511772 0.18469542511 
0.18469542511 0.16259122692 0.081294304284 0.041115256835 0.041115256835 0.03267569074 0.032257422233 0.038948978073 0.052649320246 
0.017328231191 0.017328231191 0.017328231191 1.4901161194e-08 0.016367246835 0.031843212665 0.016243448469 0 0 
0 0 0.016243448469 0.031596065703 0.048268317571 0.038554808185 0.033182775925 0.033182775925 0.033182775925 
0.033182775925 0.03433596385 0.18186396153 0.18186396153 0.18186396153 0.11183594527 0.10600234459 0.096699259481 0.20157836836 
0.20157836836 0.31470764027 0.30811059793 0.30116744975 0.29386334384 0.27871889643 0.29887041017 0.29177120445 0.28427214266 
0.27635013154 0.27635013154 0.27635013154 0.26108202558 0.24676301576 0.40349908586 0.40349908586 0.40349908586 0.27583223043 
0.26755551229 0.24273985715 0.21827524864 0.20406199542 0.094009813796 0.094009813796 0.094009813796 0.2453305531 0.22112273375 
0.19712180257 0.088342544676 0.095748802077 0.15434692529 0.1658631631 0.18552615086 0.20655249481 0.22881984438 0.13166323258 
0.14069898459 0.15153801444 0.16432702732 0.17923142743 0.2022950611 0.22858737823 0.25802528504 0.39283472837 0.42423468624 
0.45949952363 0.098039162604 0.12115535868 0.15223421034 0.19235596456 0.24346018639 0.31730994396 0.40956790119 0.36809202554 
0.42174103223 0.27993569552 0.27007336669 1.1230129598 1.6165682283 1.58786102 1.558725665 1.5108950543 1.8032848572 
1.7854239603 1.7723259776 1.7382461195 1.7258192356 1.3893635906 1.3659876141 1.2680437322 1.244906719 1.2290952886 
1.2186240448 1.1032854005 1.1085258182 1.1191330936 1.0072025577 0.23099454148 0.19893208692 0.17122516775 0.066568163776 
0.28379410921 0.27300870309 0.38182683476 0.28146259297 0.28064932872 0.28023788201 0.17983221391 0.23145639294 0.21173349568 
0.17643267442 0.23648811023 0.23458542943 0.23458542943 0.22639319901 0.28207461585 0.28516265008 0.28516265008 0.33111996398 
0.33127510746 0.33176115384 0.30060785814 0.30060785814 0.30060785814 0.29286985557 0.28600808624 0.30932995722 0.29633457518 
0.28939124616 0.25900405952 0.26105124511 0.26105124511 0.22862121995 0.22862121995 0.22862121995 0.22862121995 0.2243973662 
0.22097144472 0.24821491135 0.31434809599 0.13364717782 0.14528070469 0.15807934406 0.18130902596 0.16592745558 0.18171198245 
0.18171198245 0.21009186738 0.23427774473 0.3284305942 0.17281968705 0.17281968705 0.18312402972 0.18312402972 0.28609289049 
0.31693955786 0.34822910061 0.38006314224 0.48173951586 0.20155384998 0.30462616812 0.32549704902 0.34745706153 0.3705698478 
0.3705698478 0.3705698478 0.38138468144 0.25472468006 0.290247094 0.22419188426 0.25664578055 0.22758211236 0.24740417187 
0.21363950063 0.1691349017 0.18524967124 0.23831593473 0.20994912591 0.23174939344 0.16736348629 0.16736348629 0.12810863066 
0.086455960434 0.19461422317 0.16323681932 0.16323681932 0.068958829983 0.023179520195 0.023179520195 0.15046883071 0.060818320779 
0.0220928644 0.14465870512 0.16180348626 0.04758223441 0.032557672501 0.062881762489 0.13130826276 0.13130826276 0.045355777031 
0.032557672501 0.033338792637 0.13130826276 0.2207694073 0.075967774549 0.065639523795 0.033338792637 0.23225218035 0.2513748991 
0.045236905478 1.4901161194e-08 0.13282731965 0.2513748991 0.10849717572 0.045236905478 0.035620037346 0.048784515593 0.10849717572 
0.065639523795 0.035620037346 0.035620037346 0.066017180509 0.066017180509 0.035620037346 0.066017180509 0.07938443875 0.023144212415 
0.023144212415 0.066017180509 0.091034762164 0.069783269739 0.023144212415 0.066017180509 0.090788615642 0.069783269739 0.12362199742 
0.11363687712 0.13799101699 0.061622460779 0.17218122892 0.13799101699 0.21081424271 0.21486446951 0.24011819982 0.26304948697 
0.29061224286 0.26625663449 0.32031911533 0.34534179859 0.37367470348 0.350053695 0.37110020413 0.39758028696 0.40040410126 
0.39758028696 0.44004103444 0.26042704676 0.32848810492 0.26052782498 0.30328359503 0.23113508605 0.11040529716 0.18089661881 
0.17839212315 0.026772454952 0.096189533391 0.070283572035 0.095134707079 0.095134707079 0.091322897298 0.15248127824 0.16508225355 
0.25571569185 0.2484031887 0.28728599304 0.3578652505 0.34843807601 0.38174480747 0.44752084939 0.43296749364 0.37838047445 
0.43035799703 0.37401267257 0.30159470579 0.27001683482 0.24100725773 0.1555399662 0.11035202002 0.053636308731 0.053520829734 
0.053520829734 0.026721977225 2.1073424255e-08 0.059397892749 0.037788664207 0.059440763125 0.083744553558 0.059013119552 0.083136497366 
0.083632547868 0.078966344799 0.083136497366 1.7046053505 1.9247756258 1.8990692293 1.8734154575 1.8441562023 1.7989064135 
1.771107904 1.7398848877 1.6139986387 1.5395183588 1.5157451691 1.4743279231 1.3594517591 1.3214569708 1.3019054951 
1.2520344892 1.1079502204 1.0763277721 0.73013999366 0.72580153577 0.55686318074 0.54970878718 0.54344436643 0.38937594298 
0.38843300254 0.3844980359 0.2561575203 0.028993940765 0.026617609779 0.032433910791 0.032433910791 0.032433910791 0.064211900579 
0 0.015773121132 0.027717396837 0.13870313178 0.051259204592 0.055748295211 0.016732857912 0 0.064211900579 
0 0.032433910791 0.015773121132 0.03065956107 0.12245952519 0.11101976896 0.099564119243 0.098575488464 0.094045872168 
0.061840158564 0.062639425307 0.02201821673 0.014886439938 0.18127952241 0.18356018662 0.15410722121 0.15538441438 0.12245952519 
0.099564119243 0.093930716084 0.042260031797 0.014886439938 0.16847365134 0.38753218806 0.38397602008 0.41408475339 0.3933399141 
0.38397602008 0.50280891013 0.50280891013 0.15547457832 0.1670408007 0.28082085097 0.1214037254 0.14474055197 0.14211771918 
0.14506903655 0.17668868364 0.14211771918 0.25484587907 0.14474055197 0.14506903655 0.1797905033 0.14211771918 0.24623291703 
0.26182889726 0.28205394462 0.30356319768 0.058378437296 0.14474055197 0.14474055197 0.14211771918 0.14506903655 0.028324445481 
0.031841194246 0 0 0.043883685824 0.028324445481 0.031841194246 0.045343317615 0.031841194246 0.031841194246 
0.24058638196 0.054625608831 0.039943847113 0 0.045343317615 0.30332572945 0.17886837114 0.13533185918 0.045343317615 
0.10098269472 0.11989169508 0.14147791006 0.16428089914 0.1634246797 0.17926617243 0.031841194246 0.031841194246 0.045343317615 
0.10098269472 0.13533185918 0 0.045343317615 0.045343317615 0.020507054983 0.039943847113 0.13571501257 0.2591984894 
0.020507054983 0.062979547371 0.055654418018 0.03498131712 0.15876482613 0.020331221326 0.30028940911 0.29050805895 0.29050805895 
0.15898406892 0.12676424264 0.080689703929 0.045343317615 0.032616971553 0.020507054983 0.11880136958 0.086305629077 0.032616971553 
0 0.032616971553 0.032616971553 0.020507054983 0.10058079041 0.080689703929 0.029241789308 0.020331221326 0.045343317615 
0.032616971553 0.029241789308 0.045343317615 0.037859740513 0.058378437296 0.14907944346 0.14907944346 0.032616971553 0.032616971553 
0.032616971553 0.032616971553 0.029241789308 0.045343317615 0 0.032616971553 0 0.10058079041 0.12955308364 
0.10058079041 0.12189060765 0.14322826356 0.14451491791 0.23064696279 0.25220780938 0.29529476141 0.25226301183 0.27620168692 
0.30411051134 0.37266605692 0.39737610402 0.37298961462 0.39737610402 0.42742708565 0.42615487492 0.48085944243 0.52890060883 
0.50551796761 0.53508375721 0.56107720057 0.42036730217 0.47163141418 0.40775596267 0.45351145007 0.29998230826 0.36404855468 
0.29092978227 0.16712907614 0.25782870722 0.1675262763 0.2804287904 0.19825662371 0.10848840608 0.083008134652 0.058558939486 
0.0369833665 0.037416003535 0.02653318838 0.083136497366 0.10582465127 0.11812751241 0.14264592981 0.2141091362 0.2409074063 
0.22785487708 0.25326564081 0.2464009495 0.25430655859 0.18046656617 0.18060920648 0.17034985192 0.14511968934 0.076288829507 
0.07616430531 0.060173747175 0.038026843819 0.038026843819 0.026905366907 0.038061396229 0.038026843819 0.038026843819 0.060173747175 
0.038116654675 0.085174925961 0.085174925961 0.085174925961 0.085174925961 0.10781699324 0.13477115608 0.10789521156 0.10789521156 
0.053986885881 0.053986885881 0.038165226606 0.038165226606 0.038165226606 0.060300643582 0.038116654675 0.038137461491 0.038137461491 
0.038137461491 0.026983613979 0.026983613979 0.038137461491 0.038137461491 0.038137461491 0.038116654675 0.036059785122 0.027813352647 
0.029354567059 0.032421929301 0.038137461491 0.048582182906 0.053947605782 0.053947605782 0.053947605782 1.2504981498 1.2741101304 
1.3104498069 1.2018013404 1.1513346998 0.98769966033 0.79123383818 0.61311807944 0.40656979107 0.30454668436 0.23423910555 
0.14885394437 0.097044096901 0.11111073531 0.11119839712 0.19029541852 0.2166633112 0.24289379502 0.26658459705 0.34441439848 
0.36939704856 0.31671908782 0.28982733859 0.26295578974 0.23615038168 0.15827142229 0.078543055671 0.026191883505 0.059270022484 
0.11784018305 0.19949219978 0.24784891707 0.29943287709 0.3255146606 0.35856417736 0.40995306312 0.38594232503 0.3299038654 