# vtk DataFile Version 5.1
vtk output
ASCII
DATASET POLYDATA
POINTS 5684 double
9.0450003594 42.255001679 119.5 9.1800003648 42.390001684 119 9.3150003701 42.52500169 118.5 
9.4500003755 42.660001695 118 9.5850003809 42.795001701 118 9.7200003862 42.930001706 117.5 
9.8550003916 43.065001711 117 9.990000397 43.200001717 116.5 10.125000402 41.985001668 108 
10.125000402 42.120001674 108 10.125000402 42.255001679 108 10.125000402 42.390001684 108 
10.125000402 42.52500169 107.5 10.125000402 43.335001722 116.5 10.125000402 43.470001727 116.5 
10.125000402 44.145001754 97.5 10.125000402 44.145001754 110 10.125000402 44.28000176 115 
10.125000402 44.415001765 106 10.125000402 44.415001765 115 10.125000402 44.55000177 106 
10.125000402 44.55000177 115 10.125000402 44.685001776 106 10.125000402 44.685001776 115 
10.125000402 44.820001781 89 10.125000402 44.820001781 106.5 10.125000402 44.820001781 109 
10.125000402 44.820001781 115 10.125000402 44.955001786 89 10.125000402 44.955001786 106.5 
10.125000402 44.955001786 109 10.125000402 44.955001786 115 10.125000402 45.090001792 106.5 
10.125000402 45.090001792 109 10.125000402 45.225001797 107 10.125000402 45.225001797 109 
10.125000402 45.360001802 107 10.125000402 45.360001802 109 10.260000408 41.715001658 108 
10.260000408 41.850001663 108 10.260000408 42.390001684 107 10.260000408 42.52500169 108 
10.260000408 42.660001695 108 10.260000408 43.605001733 116 10.260000408 43.740001738 115.5 
10.260000408 43.875001743 115.5 10.260000408 44.010001749 109.5 10.260000408 44.010001749 115.5 
10.260000408 44.145001754 115.5 10.260000408 44.28000176 97.5 10.260000408 44.28000176 109 
10.260000408 44.415001765 105.5 10.260000408 44.415001765 109 10.260000408 44.55000177 109 
10.260000408 44.685001776 89.5 10.260000408 44.685001776 90 10.260000408 44.685001776 90.5 
10.260000408 44.685001776 91 10.260000408 44.685001776 109 10.260000408 44.955001786 88.5 
10.260000408 45.090001792 115 10.260000408 45.495001808 107 10.260000408 45.495001808 108 
10.260000408 45.495001808 109 10.260000408 45.495001808 110 10.260000408 45.630001813 107 
10.260000408 45.630001813 110.5 10.260000408 45.765001819 107 10.395000413 41.580001652 108 
10.395000413 42.795001701 108.5 10.395000413 42.930001706 109 10.395000413 43.065001711 109 
10.395000413 43.200001717 109 10.395000413 43.335001722 109 10.395000413 44.145001754 109 
10.395000413 44.415001765 91.5 10.395000413 44.415001765 97.5 10.395000413 44.415001765 105 
10.395000413 44.55000177 91.5 10.395000413 44.955001786 88.5 10.395000413 45.225001797 115 
10.395000413 45.360001802 115 10.395000413 45.495001808 115 10.395000413 45.630001813 108 
10.395000413 45.630001813 109 10.395000413 45.630001813 109.5 10.395000413 45.630001813 115 
10.395000413 45.765001819 108 10.395000413 45.765001819 109 10.395000413 45.765001819 115 
10.395000413 45.900001824 107 10.395000413 45.900001824 108 10.395000413 45.900001824 109 
10.395000413 45.900001824 115 10.395000413 46.035001829 107 10.395000413 46.035001829 108 
10.395000413 46.035001829 115 10.395000413 46.170001835 115 10.530000418 43.470001727 109 
10.530000418 43.605001733 109 10.530000418 43.740001738 109 10.530000418 43.875001743 109 
10.530000418 44.010001749 109 10.530000418 44.28000176 92 10.530000418 44.55000177 97.5 
10.530000418 44.55000177 103 10.530000418 44.55000177 103.5 10.530000418 44.55000177 104 
10.530000418 44.55000177 104.5 10.530000418 44.955001786 88.5 10.530000418 44.955001786 95 
10.530000418 44.955001786 95.5 10.530000418 46.035001829 109 10.530000418 46.170001835 107 
10.530000418 46.170001835 108 10.530000418 46.170001835 109 10.530000418 46.30500184 115 
10.665000424 44.28000176 92 10.665000424 44.685001776 97.5 10.665000424 44.685001776 102.5 
10.665000424 44.820001781 94.5 10.665000424 44.955001786 88.5 10.665000424 45.090001792 96 
10.665000424 46.30500184 107 10.665000424 46.30500184 108 10.665000424 46.30500184 109 
10.665000424 46.440001845 107 10.665000424 46.440001845 109 10.665000424 46.440001845 115 
10.665000424 46.575001851 115 10.665000424 46.980001867 122.5 10.800000429 44.28000176 92.5 
10.800000429 44.820001781 94.5 10.800000429 44.820001781 97.5 10.800000429 44.820001781 102 
10.800000429 44.955001786 88.5 10.800000429 44.955001786 97.5 10.800000429 45.090001792 97.5 
10.800000429 45.225001797 96.5 10.800000429 45.360001802 96.5 10.800000429 46.440001845 108 
10.800000429 46.575001851 107 10.800000429 46.575001851 109 10.800000429 46.710001856 115 
10.800000429 47.115001872 122.5 10.935000435 44.28000176 92.5 10.935000435 44.685001776 94 
10.935000435 44.955001786 88 10.935000435 44.955001786 101.5 10.935000435 45.225001797 97.5 
10.935000435 45.360001802 97.5 10.935000435 45.495001808 97 10.935000435 45.495001808 97.5 
10.935000435 45.495001808 98 10.935000435 45.495001808 141.5 10.935000435 46.575001851 108 
10.935000435 46.710001856 107.5 10.935000435 46.710001856 109 10.935000435 46.845001861 115 
10.935000435 47.250001878 122.5 10.935000435 47.385001883 122.5 10.935000435 47.520001888 122.5 
11.07000044 44.28000176 92.5 11.07000044 44.55000177 93.5 11.07000044 44.820001781 101 
11.07000044 44.955001786 87.5 11.07000044 45.360001802 98.5 11.07000044 45.630001813 142 
11.07000044 46.30500184 144 11.07000044 46.710001856 107.5 11.07000044 46.710001856 108 
11.07000044 46.845001861 109 11.07000044 46.980001867 109 11.07000044 46.980001867 115 
11.07000044 47.655001894 122.5 11.205000445 44.28000176 92.5 11.205000445 44.415001765 93 
11.205000445 44.820001781 100.5 11.205000445 44.955001786 87 11.205000445 44.955001786 100 
11.205000445 45.090001792 99.5 11.205000445 45.225001797 99 11.205000445 45.630001813 142.5 
11.205000445 45.765001819 143 11.205000445 45.900001824 143 11.205000445 46.035001829 143 
11.205000445 46.170001835 143 11.205000445 46.30500184 137.5 11.205000445 46.30500184 143 
11.205000445 46.440001845 137 11.205000445 46.440001845 143 11.205000445 46.440001845 144 
11.205000445 46.575001851 143 11.205000445 46.575001851 144 11.205000445 46.710001856 143 
11.205000445 46.710001856 144 11.205000445 46.845001861 108 11.205000445 47.115001872 109 
11.205000445 47.115001872 115.5 11.205000445 47.250001878 109 11.205000445 47.790001899 122.5 
11.340000451 44.820001781 100 11.340000451 44.955001786 86.5 11.340000451 46.575001851 137 
11.340000451 46.575001851 138 11.340000451 46.710001856 136 11.340000451 46.710001856 136.5 
11.340000451 46.710001856 137 11.340000451 46.710001856 137.5 11.340000451 46.845001861 135.5 
11.340000451 46.845001861 137 11.340000451 46.845001861 143 11.340000451 46.845001861 144 
11.340000451 46.980001867 108.5 11.340000451 46.980001867 137 11.340000451 47.115001872 108.5 
11.340000451 47.115001872 115.5 11.340000451 47.115001872 137 11.340000451 47.250001878 108.5 
11.340000451 47.385001883 109 11.340000451 47.790001899 122.5 11.475000456 44.955001786 85.5 
11.475000456 44.955001786 86 11.475000456 46.980001867 143 11.475000456 46.980001867 144 
11.475000456 47.250001878 115.5 11.475000456 47.250001878 137 11.475000456 47.385001883 108.5 
11.475000456 47.520001888 108.5 11.475000456 47.520001888 109 11.475000456 47.655001894 108.5 
11.475000456 47.655001894 109 11.475000456 47.790001899 108.5 11.475000456 47.790001899 122.5 
11.475000456 47.925001904 123 11.475000456 48.06000191 123.5 11.475000456 48.06000191 124 
11.610000461 47.115001872 143 11.610000461 47.115001872 144 11.610000461 47.385001883 115.5 
11.610000461 47.385001883 137 11.610000461 47.385001883 146 11.610000461 47.790001899 108 
11.610000461 47.790001899 109 11.610000461 47.925001904 107 11.610000461 47.925001904 107.5 
11.610000461 47.925001904 109 11.610000461 47.925001904 121.5 11.610000461 47.925001904 122 
11.610000461 47.925001904 122.5 11.610000461 47.925001904 124.5 11.610000461 48.06000191 106 
11.610000461 48.06000191 106.5 11.610000461 48.06000191 109.5 11.610000461 48.195001915 109 
11.610000461 48.195001915 110 11.610000461 48.195001915 110.5 11.745000467 47.250001878 143 
11.745000467 47.250001878 144 11.745000467 47.385001883 115.5 11.745000467 47.385001883 146 
11.745000467 47.520001888 137 11.745000467 47.790001899 125 11.745000467 47.925001904 122 
11.745000467 48.06000191 121.5 11.745000467 48.06000191 122.5 11.745000467 48.195001915 111 
11.745000467 48.195001915 111.5 11.745000467 48.195001915 112 11.745000467 48.195001915 121 
11.745000467 48.33000192 109 11.745000467 48.33000192 110 11.745000467 48.33000192 110.5 
11.880000472 47.385001883 143 11.880000472 47.385001883 144 11.880000472 47.520001888 115.5 
11.880000472 47.520001888 146 11.880000472 47.655001894 137 11.880000472 47.790001899 137 
11.880000472 48.06000191 122 11.880000472 48.195001915 121.5 11.880000472 48.195001915 122 
11.880000472 48.33000192 112 11.880000472 48.33000192 121 11.880000472 48.465001926 110 
11.880000472 48.465001926 112 12.015000477 47.520001888 143 12.015000477 47.520001888 143.5 
12.015000477 47.655001894 115.5 12.015000477 47.655001894 144 12.015000477 47.655001894 144.5 
12.015000477 47.655001894 145 12.015000477 47.655001894 146 12.015000477 47.925001904 137 
12.015000477 48.195001915 122 12.015000477 48.33000192 121.5 12.015000477 48.33000192 122 
12.015000477 48.465001926 121 12.015000477 48.600001931 110 12.015000477 48.600001931 112.5 
12.015000477 48.735001937 110 12.015000477 48.735001937 113 12.150000483 47.655001894 116 
12.150000483 47.655001894 143 12.150000483 47.790001899 143 12.150000483 47.790001899 144.5 
12.150000483 47.790001899 145 12.150000483 47.790001899 145.5 12.150000483 47.925001904 140 
12.150000483 47.925001904 140.5 12.150000483 47.925001904 144.5 12.150000483 47.925001904 145 
12.150000483 48.06000191 137 12.150000483 48.06000191 139.5 12.150000483 48.06000191 144.5 
12.150000483 48.06000191 145 12.150000483 48.465001926 121.5 12.150000483 48.465001926 122 
[...]
CELL_DATA 5683
SCALARS angle%0A[rad] double
LOOKUP_TABLE default
0 1.0756630467 1.0756630467 0.20680758044 0.40059152922 0.70939511271 0.45374006278 0.32613197596 0.19883183164 
0.089506590424 0.84590175002 0.79839339599 0.75490808502 0.71510056363 0.86778572741 0.63947921811 0.60887877882 0.58074689322 
0.55483599185 0.5309240368 0.18101680324 0.25445437406 0.22607624731 0.20322997509 0.18850967064 0.18489575155 0.19324473313 
0.21247469798 0.15408775197 0.20569527129 0.34171322692 0.39998898586 0.11914913936 0.16418067461 0.2455346396 0.35488938645 
0.49704249352 0.69291684727 0.93061962478 0.73201654261 0.70150050074 0.43746684689 0.67595379869 0.88342627945 0.6255121138 
0.50913902247 0.60226038436 0.50280891013 0.65056855304 0.86669582343 0.64169100586 0.47253877397 0.70716022315 0.78690985256 
0.76468989636 0.61749410812 0.5945033997 0.69193333053 0.29654819549 0.58325777636 0.84692581522 0.70781867591 0.84692581522 
0.30003891666 0.57674168653 0.29654819549 0.53799499782 0.93241741227 1.0967703929 1.0445913838 0.5222128184 1.0786754914 
1.0513276906 0.23273375256 0.80963360226 1.0236498444 0.99634968381 0.28222241483 0.51799733573 0.96063888886 0.93502274348 
0.53032467527 0.9085609886 0.90066133833 0.87555677746 0.85146122171 0.76530602869 0.36590080179 0.8208594448 0.819593184 
0.82709308054 0.86860096656 0.71706754238 0.69512248399 0.67427442916 0.65445995341 0.55051399184 0.55051399184 0.55051399184 
0.53318576065 0.51681851382 0.48342302095 0.37620728182 0.38998317527 0.38998317527 0.38998317527 0.38998317527 0.37779795138 
0.36631767459 0.35548566991 0.2426291427 1.1254770654 1.3107370469 0.032246882435 0.032246882435 0.557358561 0.56887902055 
0.65445995341 0.76451501414 0.90712926478 1.090229335 0.25038800532 0.47141671151 0.57145179521 0.65938012911 0.67339816485 
0.60139717611 0.7610867191 0.73201654261 0.99238129711 1.0590661351 1.0054567816 1.0080290936 1.0116137365 0.95540095678 
0.9763279732 1.0243277422 0.98341599343 0.88383215504 0.81884730121 0.93176858376 0.91313590994 0.86575904795 0.81868691044 
0.77221872916 1.2031478414 0.80998538436 0.62146425058 0.59161675104 0.57248807157 0.60467052988 0.66654592698 0.79372508098 
0.25367409614 1.0671325766 0.55675820083 0.86726512686 0.83448648804 0.72966013053 0.72111864838 0.70220687004 0.64167370127 
0.58308068377 0.53248246329 0.60465141224 0.58310073471 0.5629995308 0.31632030451 0.62513591113 0.58628686012 0.57950290803 
0.57879541326 0.52706476018 0.51572279601 0.87061887914 0.53964562243 0.82855885773 0.43230354943 0.51769717231 0.85965649789 
0.17176794107 0.340832028 0.39397637108 0.83448589949 0.810159735 0.5386404052 0.81087703347 0.56442955497 0.5167894469 
0.63425103941 0.48148640542 0.40215794547 0.5203223215 0.33056352264 0.32210612192 0.42706776807 0.17769475628 0.20959909526 
1.1995480654 0.056728365309 0.13527633192 0.36293644411 0.14886110254 0.23501842808 0.1232857586 1.2003036653 0.34283268833 
0.32332904507 0.29506532991 0.26908564368 0.27528519972 0.20483336128 0.24155142313 0.17392636353 1.1057904972 0.40381120962 
0.30002759945 0.26036318401 0.1885937838 0.15765645219 0.20619727302 0.17350759175 0.20619727302 0.94395539798 0.20603376413 
0.53010446547 0.46332359998 0.35404660713 0.32722499658 0.94152485865 0.9169349604 0.83998647546 0.96774815307 0.81417316045 
0.30124415937 0.47988207583 0.45483913205 0.85750303936 0.87039792909 0.8932846803 0.84592684677 0.85653389163 0.97310479917 
0.38408800534 0.79435584561 0.72156722912 0.69005933533 0.68916816487 0.63852049214 0.54668810142 0.64584333513 0.076789996799 
0.17659007689 0.1900794942 0.21067481221 0.16527870932 0.13210691342 0.18382157474 0.1031497095 0.087673214389 0.14836840844 
0.14640212653 0.28527727982 0.30551502365 0.32996808251 0.21037228088 0.16929848504 0.17060340642 0.19825041721 0.12740630311 
0.064517454399 0.13550270626 0.11788274771 0.19935799356 0.41286319189 0.57167890354 0.72437053195 0.12863574484 0.2157249944 
0.12624346345 0.019814475745 0.28458543652 0.39470889334 0.71706754238 0.71093935506 0.39350955008 0.79493796179 0.70254347507 
0.94131553134 0.45794626878 0.49085485963 0.50170280497 0.32207145621 0.1477024573 0.23829823364 0.8932846803 0.81817504787 
0.35204521561 0.84042299494 0.73513714698 0.75799640718 0.78030643654 0.22285149244 0.71410750065 0.73470017566 0.70220218627 
0.76512259897 0.1281482343 0.69168526772 0.68605440759 0.6747575026 0.82265208848 0.20633944019 0.70151256019 0.69076038167 
0.66337271647 0.65739227549 0.53498237015 0.5945033997 0.097738948029 0.53533046833 0.53498237015 0.56279915105 0.53498237015 
0.73054688695 0.20672619645 0.10916181303 0.11130923395 0.17589043755 0.19154802591 0.27419776873 0.32630296546 0.16044574612 
0.2490403678 0.30222554689 0.12133325342 0.16044574612 0.37470067773 0.49432479303 0.83448589949 0.185944184 0.33260390894 
0.20215563816 0.22340452651 0.36469088322 0.89204925353 0.27478837835 0.56442955497 0.22538979414 0.42870573383 0.10591383362 
0.24498866037 0.42870573383 0.19094670941 0.40683046984 0.94457942555 0.09272898799 0.20230095339 0.41209823315 0.89070563888 
0.942877447 0.13477852547 0.9044665618 0.81482798149 0.97833406317 1.3524418136 1.3732384085 1.3491619486 1.4061248294 
1.4244995204 1.4969700074 1.5346308434 1.5777065185 1.3304764827 0.16343150577 1.2498259788 1.2988538228 1.4848590094 
1.46326132 1.376125582 1.3898833627 1.0657882725 1.039103434 0.63451372953 0.35383408216 0.15380360508 0.15330245489 
0.32725864913 0.61408985072 0.45595139474 1.3337436558 1.3085399862 0.29477636973 0.2937380582 0.24539545604 0.27653510437 
0.22154063816 0.11318036922 0.088029923537 0.074060159587 0.077022371913 0.028291660464 0.16460850006 0.060810205331 0.30645674557 
0.23168964062 0.31440228786 0.29488848315 0.22557533465 0.19961429712 0.086147640411 0.057155929697 0.1353327115 0.057155929697 
0.14491375565 0.057155929697 0.1606858913 0.057155929697 0.19143927294 0.057155929697 0.2769978011 0.057155929697 1.1428272129 
0.14653124653 0.22380930604 0.22380930604 0.040559657824 0.22380930604 0.42349200276 0.44222686343 0.38716095212 0.35152015574 
0.37297549029 0.41949650206 0.46772795091 0.58853904955 0.5197429966 0.77579581877 1.3305469378 1.3222491188 1.2762595222 
1.2605645046 1.2991273479 0.13400909557 0.2410467378 0.72492217166 0.73385487956 0.73755126347 0.56211877253 0.4932154939 
1.524403675 1.0131903641 1.2907052105 1.189032699 1.1608878933 1.1639613907 1.1375418525 1.1157203979 1.1304686161 
1.0756630467 1.0462821487 1.017867036 1.0694327428 1.3730382022 1.3774548233 1.3091454415 1.2871458087 1.4211606645 
1.3845276862 1.2790951271 0.82833383363 0.73899125918 0.76776154919 0.7346679497 0.64879722181 0.45707689537 0.36493435276 
0.39741036897 0.40149357533 0.49384110948 0.48796276026 0.53278119016 0.41506573813 0.31424490304 0.26502562778 0.25225986798 
1.3125792915 1.4897906874 1.4811430681 1.429368283 1.3900826571 1.3531524872 1.3336766452 1.3220044108 1.285740627 
1.2406337447 1.176503365 1.1260246415 1.0823255054 1.0183682018 1.0014056942 0.9728190018 1.1546405356 0.52241520032 
0.62759746311 0.49970200522 0.47723008775 0.46162673207 0.35335577719 0.36198127733 0.30233169917 0.23932887578 0.21964845711 
0.16725759644 0.13524626821 0.14976940527 0.30620955683 0.36812283177 0.44829031925 0.56130135406 0.72497816086 0.9630670141 
1.2945950095 1.1907344539 1.0473360254 0.83093322651 0.78679078191 0.72162263027 0.41088593966 0.20514419072 0.1562614747 
0.23417564561 0.2613269851 0.26144814127 0.10624574709 0.16017103084 0.13336768301 0.029553916932 0.1360335334 0.16757402076 
0.13065901236 1.3592579764 1.3094336643 1.271245318 1.2484755552 1.2107615465 1.1707173596 1.1469465581 1.0789984697 
1.0542946327 1.0143964335 0.94420957223 0.94149562072 0.94420957223 0.92253219517 0.88132863705 0.89134568308 0.86325181436 
0.83644580078 0.80777777427 0.88797753975 0.88514611224 0.88934929967 0.83193748373 0.86497954781 0.70721482231 0.71483118074 
0.83472334492 1.1310244797 0.50804505678 0.51274899892 0.56250050715 0.62004739249 0.79461038891 0.86660385532 0.96869896652 
1.0628853422 1.1697237772 1.2873443555 1.1581056334 1.0515198126 0.96537850009 0.14955418072 0.14433978438 0.13347332591 
0.14534266484 0.16241110816 0.18391626983 0.14123948526 0.40501081896 0.40596168048 0.4121865382 0.44547192775 0.57795078189 
0.59867878638 0.64586515642 1.0421582691 1.0873884421 1.0873884421 1.1847508289 1.1719072981 1.2025326087 1.2935253191 
1.3084076024 1.3026586336 1.3495082225 1.3486945326 1.243204614 1.2484445797 1.2200402537 1.1773460414 1.2120078118 
1.232661256 1.2541268582 1.2974303208 1.3209324108 1.3349675671 1.0633007638 1.0885660801 1.1170110569 1.1494222537 
1.0147671232 0.75351859342 0.79855206848 0.83698852486 0.69444714066 0.54652900311 0.37028896268 0.43067342956 0.28827419442 
0.1785234385 0.344059325 0.35581501384 0.53774019193 0.78206867517 0.6813040652 0.56811169303 0.35262008535 0.15680759424 
0.15495311589 0.32375189624 0.26573387083 0.2768610609 0.25015645455 0.25171116921 0.20103828635 0.27607056421 0.35579756662 
0.47102030457 0.5520779082 0.58859346121 0.6840569949 0.83002827043 0.86813730812 0.91869497844 0.95818910765 1.0270199656 
0.99523239107 1.0027697279 1.0255823049 0.90269264557 0.85259295792 0.76898724428 0.71544487186 0.56474815216 0.44953809589 
0.28649163172 0.21425513459 0.19278814852 0.24923286431 0.30744377499 0.38682000277 0.28484768723 0.28047137348 0.31141474985 
0.24065258488 0.20279916299 0.39555720864 0.39873910559 0.31625117392 0.29799090934 0.21642113148 0.19436494472 0.094742932924 
0.021150021807 0.045425015541 0.14324816602 0.30105611405 0.44066470349 0.49872721829 0.45909680211 0.43566462541 0.43179778863 
0.38603739207 1.611006263 1.6139336037 1.73586299 1.6866614124 1.6605143569 1.6195520044 1.59383464 1.5231028125 
1.4756252905 1.428573941 1.3562794891 1.3049081921 1.1904631125 1.188874318 1.1476519475 1.0532858862 1.0153537253 
0.98581995239 0.9075712347 0.86423762583 0.82434853524 0.78599407293 2.181048374 1.9824550605 0.49562553717 0.54609826472 
0.61342275406 0.69603446834 0.55720916081 0.8484896925 1.5803557773 1.5803967953 1.5622129735 1.6383327607 1.3957887407 
1.3688348594 1.3548036295 1.31714308 1.2824179211 1.1736031124 1.1548552424 1.2250307125 1.1276861255 1.1428588818 
1.2096603223 1.2205698688 1.1267088831 1.1937986575 1.2291201521 1.2528753851 0.99070763521 0.97201553047 0.83937391421 
0.67909324101 0.35148265544 0.21109426908 0.29041472565 0.32150092741 0.37855638936 0.44113238122 0.49478824406 0.55219614751 
0.36558852384 0.17120527743 0.12742267843 0.33635377763 0.2771984987 0.16164947485 0.25588330642 0.27085884329 0.75938520954 
0.92247881445 0.92343639365 0.92460129529 0.93518759795 0.93590601966 0.94855878657 0.91437627812 0.89459144527 0.8779447937 
0.80105303965 0.76870626964 0.67792731339 0.97205604326 1.2779244481 1.3435952341 1.4123418423 1.0714932348 1.009934617 
1.122545014 0.35270770611 0.21136664065 0.2320333827 1.2803617601 1.1454563115 0.93947956203 0.82909417231 0.9620276492 
1.0043806143 0.8032129356 0.56365565233 0.18476800126 0.45220893004 1.5441501035 0.225921099 0.42744391895 0.12016592259 
0.25185247521 0.40167416502 0.91722756621 1.4960596551 1.4243254504 1.4229514995 0.39680722798 0.35659342404 0.2837797895 
0.32773099285 0.37575581764 0.39287891043 0.44813710042 0.57489619953 1.9690094635 1.2402265432 1.1533865465 0.51529903897 
0.49905813749 0.32845799108 0.23283929067 0.29774156103 0.42456780086 0.54215560755 0.78722741378 0.74747144057 0.42543182638 
0.48861193783 0.43630488405 0.40501081896 0.43347755047 0.55426268482 0.55548205323 0.8149090852 1.2104898324 0.27515419958 
0.36605896678 0.38070742137 0.25829841067 0.29087671914 0.32686400498 0.36628899204 0.34281913201 0.35446569518 0.39247293881 
0.46375123377 0.42463525336 0.77932879774 1.1824795219 1.1660129581 1.0679208375 1.0815635315 1.1617495039 1.2977545415 
0.4858024354 0.50409454363 0.4858024354 0.4858024354 1.3753706354 0.17285195592 0.28324713388 0.17285195592 0.17285195592 
0.50181356846 0.51620666207 0.18475789873 0.24990985814 0.35853307672 0.39133007581 0.51108445646 0.38875280066 0.27361538812 
0.3892574312 0.47458285114 0.51753312236 0.13547811271 0.33923848975 0.34581206617 0.3581107777 0.34298671139 0.33267030532 
0.34777866505 0.53412888743 0.75093789189 0.72665113017 1.3016502235 1.3978803036 1.5541252167 1.865095889 1.9487488358 
1.9475508148 1.9638324565 1.9687072582 1.9731179278 1.9878883064 2.0110481439 2.0318481012 2.052599893 2.0788183695 
2.1106444473 2.1056467102 2.1452925194 2.190182627 2.1500647596 1.8670353745 1.0978601954 1.3945380226 1.3746649049 
1.3340591842 1.2950366619 1.2507393999 1.2253013939 1.1844564891 1.1167636909 1.4030588693 1.040002161 1.0164611029 
1.1039957616 0.27789542067 0.36921046628 0.33033536722 0.23761434447 0.19003478073 0.038165226606 1.8772436265 1.7858677149 
1.7011643564 1.4038879056 0.45964592152 0.43598898558 0.30395271516 0.29887818725 0.29206682872 0.58104535762 0.60188036568 
0.56705799083 0.4676446509 0.36936499814 0.27653018516 0.22079065773 0.16813735466 0.088345935905 0.11686607503 0.26984042398 
1.7149295576 2.0005535406 2.2559626203 2.3079772533 2.3346579963 2.3518079453 2.402968373 2.4651817211 2.5127793261 
2.1929289269 2.4120889959 2.0267321794 2.0467220555 1.4516224498 0.8133887087 0.60772284074 0.58980072223 0.55761989487 
0.65758184563 0.62927433743 0.6180644801 0.69152403089 1.0805928609 1.1143728108 0.64456435444 0.64456435444 0.6117666849 
0.58177255728 0.45964592152 2.0264846184 1.8104747507 1.7682478922 1.3990463668 0.53992571488 0.14715394462 0.15183517808 
0.42034553181 0.52974758699 0.42034553181 0.28951789605 0.13844278729 0.20098591148 0.44497142929 1.3419999087 0.1135575628 
1.3707674348 0.21991700496 0.21095433388 0.27537818326 0.30630174317 0.52607525664 1.2467301191 1.4251206159 1.8617912701 
1.8404779791 1.8006444483 1.7594449478 1.7130187126 1.6659673631 1.5707963268 1.4622167786 1.4087438089 1.3562172502 
1.2391599395 1.4896766407 1.4011789591 1.3615469016 1.3637803696 1.2686872017 1.2814851427 1.3081357892 0.47896409741 
0.32219081005 0.33823240741 0.32023423596 1.1635021039 1.139385372 1.1563099787 0.97473788282 0.75148914529 0.5394926151 
0.3838253379 0.37968259607 1.353159042 0.15993021816 0.13379894192 0.18648315352 0.22768783895 0.26388782888 0.37793583605 
0.4940890609 0.40467710489 0.41719232669 0.48360215436 0.58979130382 0.7337407076 0.70217056794 0.64659589285 0.59314737213 
0.54475713072 0.49252230908 0.4718355218 0.35439171152 0.50380031026 1.1621107774 1.1164586308 1.2906783622 0.4204655892 
0.4858024354 0.4858024354 0.75725466685 1.0862478428 0.98987122471 1.3735268991 0.66398041723 0.69027254924 0.64508126426 
0.59060622507 0.53784594638 0.48282248134 0.43176528653 0.44725795032 0.46354271656 0.4325648229 0.35185243036 0.3310140764 
0.31947775123 0.25098227162 0.27849953732 0.33346116521 0.2903452101 0.27355475818 0.20498021807 0.79189925498 0.60915594915 
0.24841977743 0.20414967703 1.6488607277 1.7593108059 1.8893131482 1.8871651096 1.7622488447 0.82580689185 1.6247439326 
1.5977897697 1.6584065587 1.3694341809 1.2360594895 1.171286284 1.0939630367 1.039571104 0.80060063864 0.49799861201 
0.40344818942 0.31803144043 0.40307715835 0.3327228017 0.46923247937 0.38962400875 0.3110954786 0.22410252043 0.18458694376 
0.19848274023 0.26048590221 0.32463785468 0.36403461514 0.36532018934 0.28451366337 2.2873084373 2.2559467802 2.2778277196 
2.3021847682 2.1135455347 2.0605268529 1.7898243797 1.5976145923 1.4267815695 1.0049100888 1.870295762 1.6634733231 
2.0671075326 0.50903531798 1.1769111236 1.8862228351 1.8909287339 1.0580762074 0.97298934282 1.4734174828 1.900253523 
1.2879504471 0.44011236425 0.62585587477 1.4313692865 1.3893918639 1.2865771315 1.9409896375 1.3280121087 1.6909862572 
1.9903424537 1.3347423252 0.98960702991 1.2253539939 1.1938646172 1.1631409566 1.1332112614 2.0783494185 2.1435902002 
0.88512754016 0.10662321034 0.19229403557 1.4227305046 2.3319596667 2.4588864289 1.3814939502 1.3409017689 2.2002770623 
1.5855161778 1.3767028459 1.8175722568 0.72725496397 0.83043637602 0.79047596363 0.62618082544 0.59486048207 0.43292109648 
0.90680097445 0.91097966279 1.4607772676 1.4481276713 1.448459493 1.4711276743 1.2397002501 1.3521273809 1.6052654278 
1.2706915674 0.28953260621 0.23558970802 0.1993209315 0.30191802909 0.32629683212 0.085174925961 0.40547923358 0.54604385482 
1.7023563892 1.2278468579 1.4826929991 0.94908782845 1.2700082494 0.31204959726 0.39832739859 0.25471036566 0.8270021674 
1.5105011822 1.2953589756 1.3635766687 0.84478988086 1.5924415196 1.5454958778 1.3951220322 1.6813458513 1.1862733825 
0.50055924326 0.46318552299 1.6524355977 0.33026118643 0.17172629189 1.0520873683 1.0120421539 0.98963557327 0.85816183632 
0.82291369121 0.70040280419 0.69152403089 0.66192959282 0.55168005329 0.69904624586 1.044208308 1.0201858711 1.2512266543 
0.65150589658 0.45951453832 0.41606121192 0.37961743649 0.38194879987 0.83842025006 1.6228230919 0.67907020142 0.83798120525 
0.8270021674 0.8693566951 0.96320019492 1.1464648721 1.1839002169 1.0810642931 1.0404553508 0.99613248063 1.0251972277 
0.99545149624 0.89325842192 0.85420681365 0.81677926746 0.78136051205 0.68538593627 0.76968266301 0.78930611954 0.73660826718 
0.67266841264 0.6313367067 0.51442966564 0.38913680182 0.37459239433 0.36666916968 0.38903489718 0.51887883777 0.60388791303 
0.5772278504 0.58617993319 0.57534813958 0.59065530387 0.61080839518 0.64012396117 1.5872666782 2.3155633697 1.4887237242 
2.2882203978 2.037269854 0.70564280142 0.91126058672 0.70164457965 0.86521157993 0.40547923358 0.80071652481 0.77749648355 
0.84699026005 0.48984716926 0.45288188042 0.90177930828 0.86910519291 0.4394617627 0.49662056979 0.37245820308 0.35504212324 
2.398614452 2.2910897258 1.486571098 0.93623290179 0.90177930828 1.7563244783 1.8144587707 1.9430238422 0.84699026005 
1.6630698075 0.60021766736 0.52312814087 0.72471166351 1.4700645615 1.4234137795 1.3821891381 0.56265662222 0.72422783546 
0.86471446026 1.0266445793 1.3810143742 2.2647901178 2.3932146061 0.83822987547 1.3619454779 1.2700494316 1.2060444979 
1.1650634312 0.18784053489 0.17569019707 1.1154056286 1.952010616 1.3416028703 0.91126058672 0.45491531706 0.67212109462 
1.7461302554 1.7173651815 0.45964592152 0.56782039861 0.42274156063 1.1060570516 1.3563065388 1.3204218192 1.6027760616 
2.5082432345 2.1423929228 1.4934635372 0.70271566193 1.1956106934 1.491388235 1.131013335 1.1049372828 1.3028433013 
2.6742049919 1.1390056559 0.68180560822 1.2624877287 1.0508100533 0.3217505544 0.65107672144 1.5284524055 1.1401463691 
1.2607437827 1.5140173697 0.66370034936 1.0107087326 2.2578882802 1.5610373832 1.1401463691 1.6610386249 1.4225126425 
0.72336240739 0.69842237511 0.65013852435 0.60306535518 1.5967472804 1.5838415545 1.5032522189 1.5428522882 1.239596176 
0.79490347574 1.237506819 1.2366984059 1.6161377843 0.19163793737 1.4832383072 0.98396544941 0.74381260993 0.95634870532 
0.99865288779 1.1111859876 1.9950667521 0.9498680908 1.452350111 0.60763782374 1.178488438 0.51434208417 1.2719635863 
1.659111819 1.460440545 0.13639369798 0.067999172437 0.15563426101 0.2537747577 0.21837047001 0.21550257804 0.2503182601 
0.35193816251 0.59055718798 1.5707963268 1.0646268502 1.4891860486 0.56856554247 0.45135961933 0.29206682872 0.43663996239 
1.7063791399 1.5896626103 0.87130496 0.94768005222 1.2283936037 1.214142737 1.082063484 1.0241303767 1.4770591615 
0.65888562348 0.46679335564 0.35506915772 0.88804434818 0.40576014843 0.86245344572 0.38591941864 0.31919900039 0.40197696832 
1.4219723442 0.29311036388 0.87826832523 0.27007336669 1.3900509731 0.39968957454 0.31587763341 0.3145942355 0.25934147324 
0.17587007662 0.13697445726 0.13697445726 0.13697445726 0.13588643663 1.7045683972 1.893178452 2.259720715 1.2879504471 