# vtk DataFile Version 5.1
vtk output
ASCII
DATASET POLYDATA
POINTS 2196 double
19.440000772 56.970002264 133.5 19.575000778 57.105002269 134 19.710000783 57.105002269 134 
19.845000789 57.105002269 134 19.980000794 57.240002275 134.5 20.115000799 57.37500228 135 
20.250000805 57.37500228 135 20.38500081 57.510002285 135.5 20.520000815 57.510002285 135.5 
20.655000821 57.645002291 136 20.790000826 57.645002291 136 20.925000831 57.780002296 136.5 
21.060000837 57.780002296 136.5 21.195000842 57.915002301 137 21.330000848 57.915002301 137 
21.465000853 58.050002307 137.5 21.600000858 58.185002312 138 21.735000864 58.185002312 138.5 
21.870000869 58.185002312 138.5 22.005000874 58.320002317 139 22.14000088 58.320002317 139.5 
22.275000885 58.455002323 139.5 22.41000089 58.590002328 140 22.545000896 58.590002328 140 
22.680000901 20.38500081 172.5 22.680000901 58.590002328 140.5 22.815000907 20.520000815 172.5 
22.815000907 20.655000821 172.5 22.815000907 58.725002334 140.5 22.950000912 20.790000826 172.5 
22.950000912 58.725002334 140.5 23.085000917 20.925000831 172.5 23.085000917 58.860002339 141 
23.220000923 21.060000837 172.5 23.220000923 58.860002339 141 23.355000928 21.195000842 172.5 
23.355000928 58.995002344 141 23.490000933 21.330000848 172.5 23.490000933 58.995002344 141 
23.625000939 21.465000853 172.5 23.625000939 59.13000235 141.5 23.760000944 21.600000858 172.5 
23.760000944 59.13000235 141.5 23.89500095 21.735000864 172.5 23.89500095 59.265002355 142 
24.030000955 21.870000869 172.5 24.030000955 59.265002355 142 24.16500096 22.005000874 172.5 
24.16500096 59.265002355 142.5 24.300000966 22.005000874 172.5 24.300000966 42.795001701 186.5 
24.300000966 43.200001717 187 24.300000966 59.40000236 143 24.435000971 22.14000088 172.5 
24.435000971 42.795001701 186.5 24.435000971 43.335001722 187 24.435000971 43.605001733 188 
24.435000971 59.40000236 143.5 24.435000971 59.40000236 144 24.570000976 22.275000885 172.5 
24.570000976 42.795001701 186.5 24.570000976 43.470001727 187 24.570000976 43.605001733 187.5 
24.570000976 59.40000236 144.5 24.705000982 22.275000885 172.5 24.705000982 42.52500169 186.5 
24.705000982 42.795001701 186.5 24.705000982 43.200001717 186.5 24.705000982 43.470001727 187 
24.705000982 43.605001733 187.5 24.705000982 59.40000236 145 24.705000982 59.40000236 145.5 
24.705000982 59.535002366 144.5 24.705000982 59.535002366 145 24.840000987 22.275000885 172.5 
24.840000987 37.125001475 154.5 24.840000987 37.260001481 154.5 24.840000987 37.395001486 155 
24.840000987 37.530001491 155.5 24.840000987 37.665001497 155.5 24.840000987 42.660001695 186 
24.840000987 42.660001695 186.5 24.840000987 42.795001701 186.5 24.840000987 43.065001711 186.5 
24.840000987 43.200001717 186 24.840000987 43.335001722 186.5 24.840000987 43.470001727 187 
24.840000987 59.535002366 145.5 24.840000987 59.535002366 146 24.975000992 22.41000089 172.5 
24.975000992 37.800001502 155.5 24.975000992 42.660001695 186 24.975000992 42.795001701 186.5 
24.975000992 43.065001711 186.5 24.975000992 43.200001717 186 24.975000992 43.200001717 186.5 
24.975000992 43.335001722 186.5 24.975000992 59.670002371 146.5 25.110000998 22.41000089 172.5 
25.110000998 37.935001507 155.5 25.110000998 42.795001701 185.5 25.110000998 42.795001701 186 
25.110000998 42.795001701 186.5 25.110000998 42.930001706 186 25.110000998 43.065001711 186 
25.110000998 43.065001711 186.5 25.110000998 43.200001717 186.5 25.110000998 43.335001722 186.5 
25.110000998 59.670002371 146.5 25.245001003 22.545000896 172.5 25.245001003 38.070001513 155.5 
25.245001003 38.205001518 155.5 25.245001003 42.120001674 186.5 25.245001003 42.255001679 186.5 
25.245001003 42.390001684 186 25.245001003 42.390001684 186.5 25.245001003 42.52500169 186.5 
25.245001003 42.660001695 186 25.245001003 42.795001701 185.5 25.245001003 42.795001701 186 
25.245001003 42.930001706 186 25.245001003 43.065001711 186 25.245001003 43.200001717 186 
25.245001003 43.335001722 186 25.245001003 43.470001727 186 25.245001003 43.605001733 186 
25.245001003 43.740001738 186 25.245001003 59.670002371 146.5 25.380001009 22.545000896 172.5 
25.380001009 22.680000901 172.5 25.380001009 22.815000907 172.5 25.380001009 38.340001523 156 
25.380001009 42.52500169 186 25.380001009 42.795001701 185.5 25.380001009 43.065001711 186 
25.380001009 59.670002371 146.5 25.380001009 59.805002376 147 25.380001009 59.805002376 147.5 
25.380001009 59.805002376 148 25.515001014 22.815000907 172.5 25.515001014 38.475001529 156 
25.515001014 42.390001684 185.5 25.515001014 42.52500169 185.5 25.515001014 42.660001695 185.5 
25.515001014 42.795001701 185.5 25.515001014 43.065001711 185.5 25.515001014 59.670002371 146.5 
25.515001014 59.805002376 148.5 25.650001019 22.815000907 172.5 25.650001019 38.610001534 156 
25.650001019 42.390001684 185 25.650001019 42.52500169 185.5 25.650001019 42.660001695 185.5 
25.650001019 42.930001706 185 25.650001019 43.200001717 185.5 25.650001019 59.670002371 146 
25.650001019 59.805002376 148.5 25.785001025 22.950000912 172.5 25.785001025 23.085000917 172.5 
25.785001025 38.610001534 156 25.785001025 42.390001684 185.5 25.785001025 42.52500169 185 
25.785001025 42.795001701 185 25.785001025 42.930001706 185 25.785001025 43.065001711 185 
25.785001025 43.200001717 185 25.785001025 43.335001722 185 25.785001025 43.335001722 185.5 
25.785001025 43.470001727 185 25.785001025 43.605001733 185 25.785001025 43.740001738 185 
25.785001025 59.670002371 146 25.785001025 59.940002382 149 25.92000103 23.220000923 172.5 
25.92000103 23.355000928 172.5 25.92000103 38.610001534 156 25.92000103 42.52500169 185 
25.92000103 42.660001695 185 25.92000103 42.795001701 184.5 25.92000103 42.795001701 185 
25.92000103 42.930001706 185 25.92000103 43.200001717 185 25.92000103 59.670002371 145.5 
25.92000103 59.940002382 149.5 26.055001035 23.490000933 172.5 26.055001035 38.74500154 156 
26.055001035 42.390001684 184.5 26.055001035 42.390001684 185 26.055001035 42.52500169 184.5 
26.055001035 42.795001701 184.5 26.055001035 43.065001711 184.5 26.055001035 43.335001722 184.5 
26.055001035 59.670002371 145.5 26.055001035 60.075002387 150 26.190001041 23.625000939 172.5 
26.190001041 38.880001545 156 26.190001041 42.660001695 184.5 26.190001041 42.795001701 184.5 
26.190001041 42.930001706 184.5 26.190001041 43.065001711 184.5 26.190001041 43.200001717 184.5 
26.190001041 59.670002371 145.5 26.190001041 60.075002387 150.5 26.325001046 23.760000944 172.5 
26.325001046 23.89500095 172.5 26.325001046 39.01500155 156 26.325001046 42.390001684 184 
26.325001046 42.52500169 184.5 26.325001046 42.795001701 184 26.325001046 42.795001701 184.5 
26.325001046 42.930001706 184.5 26.325001046 43.065001711 184.5 26.325001046 43.200001717 184.5 
26.325001046 43.335001722 184.5 26.325001046 59.535002366 145.5 26.325001046 60.075002387 150.5 
26.460001051 24.030000955 172.5 26.460001051 24.16500096 172.5 26.460001051 39.150001556 156 
26.460001051 42.390001684 184.5 26.460001051 42.52500169 184 26.460001051 42.660001695 184 
26.460001051 42.795001701 184 26.460001051 42.930001706 184 26.460001051 43.335001722 184 
26.460001051 59.535002366 145.5 26.460001051 60.210002393 151 26.595001057 24.300000966 172.5 
26.595001057 24.435000971 172.5 26.595001057 24.570000976 172.5 26.595001057 24.705000982 172.5 
26.595001057 24.840000987 172.5 26.595001057 24.975000992 172.5 26.595001057 25.110000998 172.5 
26.595001057 25.245001003 172.5 26.595001057 25.380001009 172.5 26.595001057 25.515001014 172.5 
26.595001057 25.650001019 172.5 26.595001057 25.785001025 172.5 26.595001057 25.92000103 172.5 
26.595001057 39.285001561 156 26.595001057 42.255001679 184.5 26.595001057 42.660001695 184 
26.595001057 42.795001701 184 26.595001057 42.930001706 184 26.595001057 43.065001711 184 
26.595001057 43.200001717 184 26.595001057 59.265002355 145 26.595001057 59.535002366 144.5 
26.595001057 59.535002366 145.5 26.595001057 60.210002393 151 26.730001062 26.055001035 172.5 
26.730001062 26.190001041 172.5 26.730001062 26.325001046 172.5 26.730001062 39.420001566 156 
26.730001062 42.660001695 183.5 26.730001062 42.930001706 184 26.730001062 43.065001711 184 
26.730001062 58.725002334 146 26.730001062 58.860002339 145.5 26.730001062 58.995002344 145.5 
26.730001062 59.13000235 145.5 26.730001062 59.265002355 145.5 26.730001062 59.40000236 144 
26.730001062 59.40000236 145 26.730001062 59.40000236 145.5 26.730001062 59.535002366 144 
26.730001062 59.535002366 145 26.730001062 59.670002371 144 26.730001062 59.670002371 144.5 
26.730001062 59.670002371 145 26.730001062 59.805002376 144 26.730001062 59.805002376 144.5 
26.730001062 59.940002382 143.5 26.730001062 60.210002393 151.5 26.865001068 26.460001051 172.5 
26.865001068 26.595001057 172.5 26.865001068 26.730001062 172.5 26.865001068 26.865001068 172.5 
26.865001068 27.000001073 172.5 26.865001068 27.135001078 172.5 26.865001068 39.555001572 156 
26.865001068 42.255001679 184 26.865001068 42.390001684 184 26.865001068 42.660001695 183.5 
26.865001068 42.795001701 183.5 26.865001068 43.065001711 183.5 26.865001068 43.200001717 183.5 
26.865001068 58.590002328 146 26.865001068 58.725002334 146 26.865001068 58.860002339 146 
26.865001068 59.805002376 145 26.865001068 59.805002376 145.5 26.865001068 59.940002382 143.5 
26.865001068 59.940002382 144 26.865001068 59.940002382 145.5 26.865001068 60.075002387 146 
26.865001068 60.210002393 146 26.865001068 60.345002398 146.5 26.865001068 60.345002398 152 
27.000001073 27.270001084 173 27.000001073 27.405001089 173 27.000001073 27.540001094 173 
27.000001073 27.6750011 173 27.000001073 27.810001105 173 27.000001073 27.94500111 173 
27.000001073 28.080001116 173 27.000001073 39.690001577 156 27.000001073 42.52500169 183 
27.000001073 42.52500169 183.5 27.000001073 42.660001695 183.5 27.000001073 42.795001701 183.5 
[...]
CELL_DATA 2195
SCALARS angle%0A[rad] double
LOOKUP_TABLE default
0 0.86841019399 1.0408354724 0.63572044646 0.40583669337 0.18205444831 0.16261381043 0.12036416022 0.11035156567 
0.13297011318 0.11548349024 0.1833568158 0.17381191387 0.27304319523 0.30746564293 0.42023610205 0.3727227131 0.5275447893 
0.59633882693 0.73412885501 0.47830480551 0.39863985319 0.31360559278 0.29282896304 0.31395810704 0.27580643306 0.19744095199 
0.16073955737 0.22821642677 0.11770974289 0.10239514484 0.068078336135 0.058530207559 0.089842952158 0.1102497728 0.15520541673 
0.21446592535 0.1186689757 0.30810994611 0.05377183659 0.060195649093 0.075999157667 0.075999157667 0.09661420808 0.09661420808 
0.075739734269 0.053636308731 0.026749889395 0.037807521539 0.080560848176 0.089842952158 0.10837698097 0.11885054812 0.16088175261 
0.17917444938 0.24017790974 0.28433832372 0.25958492406 0.23531224273 0.037917500604 0.1102497728 0.084687549192 0.13374807658 
0.155812351 0.17123959125 0.1713625432 0.26415281598 0.26712604963 0.27488912988 0.28172143132 0.21532439509 0.24112529818 
0.20157424746 0.2382227218 0.21146365257 0.1848348924 0.12952311124 0.10310710873 0.23345481741 0.36427608282 0.25621962261 
0.065517407353 0.10354170324 0.052086018905 0.081761245909 0.081414495636 0.11076139386 0.16335515409 0.30609476238 0.2337423358 
0.23548703503 0.21372283865 0.23752514787 0.21517389223 0.20911062235 0.19365316913 0.19003250276 0.19365316913 0.19303234476 
0.21517389223 0.20314802949 0.155812351 0.14377460416 0.096389064832 0.070916418535 0.053738863126 0.013758909794 0.047925612658 
0.11916810833 0.19408855418 0.19408855418 0.16913163262 0.16913163262 0.18646019555 0.13632980114 0.13299664049 0.076756302213 
0.1094186989 0.27023348116 0.084879734553 0.096600871062 0.082307318783 0.084639198886 0.15615398149 0.1937323587 0.15213598504 
0.085162512636 0.084179614057 0.11405416391 0.12016592259 0.12016592259 0.11086736701 0.11086736701 0.10758301464 0.10758301464 
0.080823550303 0.14456648099 0.26505775269 0 0 0 0.0029975631075 0.0067437526968 0.053947605782 
0.053947605782 0.053947605782 0.053947605782 0.053947605782 0.02699344294 0.02699344294 0.080794234205 0.080794234205 0.1075441236 
0.060173747175 0.069501637227 0.081164581823 0.044813002566 0.057337448077 0.075834365359 0.10435733056 0.028349727907 0.059758297912 
0.11086736701 0.085174925961 0.085174925961 0.085174925961 0.28443799012 0.060300643582 0.085301784425 0.097258169974 0.038165226606 
0.038165226606 0.026983613979 0.030126978516 0.034385539271 0.040219610243 0.020085334068 0.060230578582 0.078434468892 0.068312304488 
0.038165226606 0.038165226606 0.11052671408 0.060300643582 0.24751214295 0.21100958712 0.18835430889 0.17210502996 0.13065314963 
0.14397149255 0.20249286931 0.16731457699 0.10126483088 0.15344013443 0.1346846079 0.1844572984 0.15279622897 0.17957917648 
0.11804728514 0.21433725897 0.24065258488 0.14006635212 0.10624574709 0.29810314132 0.07987231694 0.10988033777 0.07987231694 
0.084083912508 0.084491115516 0.059742428003 0.059712941822 0.041192994931 0.033684943361 0.020427684451 0.047453134085 0.026456351662 
0.077313859596 0.047453134085 0.037084866745 0.25069766495 0.17671411162 0.13383596067 0.19548252612 0.15884263912 0.15884263912 
0.081193956918 0.14437897231 0.061784022814 0.026711100674 0.074511040933 0.074511040933 0.064860151169 0.036404747858 0.057733598508 
0.098220287538 0.036507377559 0.10191434589 0.1891350592 0.15308915127 0.15816274624 0.13286102378 0.13340547681 0.11002426821 
0.12315661324 0.16942984573 0.17085772291 0.18627043895 0.28054882775 0.35034056544 0.49645030869 0.62986118933 0.58054094799 
0.30500837444 0.26185169343 0.26650965738 0.25348926207 0.23265268364 0.25069766495 0.23265268364 0.38763662324 0.27603078514 
0.32935024301 0.11117704997 0.039245010137 0.11895285967 0.12264514471 0.086059281814 0.26707117809 0.24473745388 0.13725605126 
0.16119319592 0.18266207755 0.15239885676 0.10513239682 0.052511177917 0 0.078508162164 0.19723695016 0.11755440689 
0.13114060853 0.18558612813 0.055893243483 0.23048689291 0.21437216152 0.20952867092 0.2017160026 0.35845120454 0.57258383604 
0.46471559574 0.33647996445 0.060365656413 1.1130160058 0.10180792657 0.16744404794 0.1373723478 0.16324954919 0.060810205331 
0.27974267048 0.096779301035 0.11984677854 0.13705105342 0.080842554318 0.15093396862 0.080330732419 0.21010749051 0.1107494977 
0.29079856066 1.0813991677 0.29079856066 0.50684662415 1.2469475647 0.67819060652 0.59840243491 0.59652911348 0.38770606819 
0.53026666709 0.43669292537 0.32677656687 0.21795213465 0.10233879543 0.083154999527 0.081674125291 0.17769475628 1.7542176026 
1.8326764793 1.9429690406 2.0496271665 2.2339964291 2.1330176356 1.860407741 1.417996688 0.92095722005 0.53441831972 
0.24540967845 0.16781224125 0.19151451623 0.30881235936 0.30881235936 0.33290478029 0.26210048507 0.26210048507 0.23051630722 
0.15506690135 0.12087958187 0.099069232965 0.059741412412 0.044206338964 0.029358175522 0.079804640598 0.052856938067 0.16496183193 
0.10996009236 0.11796613503 0.15589425802 0.10936209931 0.025961037527 0.08216575561 0.034871194166 0.08216575561 0.032302334737 
0.1041516266 0.029775418947 0.096286583569 0.028994623627 0.1041516266 0.035864435473 0.057155929697 0.2769978011 0.052597877982 
0.19961429712 1.7293436774 0.9938900478 1.6286574161 1.5707963268 1.5057218738 0.63077488944 0.53208221333 0.8966849192 
0.85656803041 0.73695612405 0.83777585969 0.80191605309 0.57875939914 0.57461497575 0.41944936933 1.0598848333 0.19049267511 
0.84646151058 0.90066133833 0.11573851329 0.3359472845 0.89204925353 0.34694036844 0.97833406317 0.24077391826 0.97833406317 
0.9515821148 0.092660390995 0.13477852547 0.0300992039 0.22211357798 1.0277125322 0.20488485282 0.93705683596 0.90033033026 
0.91578257766 0.1119504299 0.10179151966 0.91071511034 0.9358203776 0.3090847589 0.88358072551 0.81331692593 0.81527848306 
0.7822925335 0.86809262981 0.18566674326 0.46556833686 0.43244469789 0.31118603094 0.28233662864 0.20842411851 0.078223312849 
0.16044574612 0.27378236533 0.53498237015 0.59909398119 0.13494499785 0.65544816094 0.63754440365 0.53498237015 0.54051203015 
0.53498237015 0.70851542436 0.0783854691 0.30636354111 0.56279915105 0.73054688695 0.73054688695 0.29350788895 0.52961180492 
0.59909398119 0.17589043755 0.70151256019 0.83448589949 0.810159735 0.062014274401 0.35631023561 0.49432479303 0.68897852104 
0.33732116818 0.37065117368 0.32137834227 0.29064858278 0.25267972057 0.26071820892 0.2632969019 0.33198038554 0.27933921446 
0.323602 0.84401448979 0.8208594448 0.40661912101 0.8259849808 0.802766125 0.71093935506 0.70607378485 0.70607378485 
0.37649393134 0.39539501914 0.37801333965 0.38747221108 0.37034057977 0.23944992133 0.28842341641 0.28396941304 0.23308005839 
0.22453323048 0.21817031145 0.41834891813 0.31146764526 0.30415084915 0.21902761987 0.20386655157 0.091741114953 0.13015952355 
0.32063276982 0.27509442847 0.1652336331 0.1926577306 0.25255291642 0.21462849717 0.35446051617 0.56157965641 0.71618729248 
0.26273723569 0.67445826387 0.55225084577 0.56004200381 0.55058228735 0.56004200381 0.54034476874 0.53350132631 0.50613061911 
0.39965675629 0.55548205323 0.53380954873 0.17067458206 0.21728002744 0.47452526523 0.66063882165 0.64584333513 0.78869168227 
0.76530602869 0.30757114333 0.75592834372 0.74751474437 0.72437053195 0.70237669534 0.68146930782 0.39470889334 0.71093935506 
0.71093935506 0.11415625578 0.21653928059 0.40980457417 0.63234301249 0.81417316045 0.48008239621 0.3085779857 0.83998647546 
0.2059718666 0.18811266236 0.11850961503 0.26943663868 0.84590175002 0.25418428309 0.99875664775 0.3761264389 0.18103433926 
0.35353388811 0.41401728961 0.11823320333 0.28183156018 0.25939215683 0.41337642085 0.20709168722 0.3096892111 1.1733288832 
0.18775434967 0.20239591622 0.21487699451 0.23501842808 0.30731242799 0.38858083856 0.5593434886 0.67599694316 0.61621455419 
0.55529275727 0.48213826305 0.67099872168 0.59446538821 0.51393364228 1.0763651853 1.0589432005 1.0107245823 0.9957955508 
1.0844782539 1.0256126235 0.95431920759 0.93444589977 0.86143069842 0.7982302037 0.9120894506 0.87917899042 0.78636680481 
0.73858254743 0.69827583992 0.56454312858 0.5309370786 0.51028264841 0.49067710683 0.36987264602 0.47514652106 0.71065822079 
0.59270105298 0.60675055102 0.65341806503 0.6536150449 0.73396822685 0.70038365751 0.69714387336 0.67193270864 0.68268329998 
0.68268329998 0.67193270864 0.64061752245 0.63027955186 0.59158849849 0.58298930657 0.57504156293 0.56623110367 0.5766518446 
0.50405831339 0.51130431349 0.53752926028 0.50442667203 0.5286267078 0.5204374284 0.52990619864 0.49828652136 0.45879441261 
0.49828652136 0.35601467291 0.28105972548 0.27465709821 0.21730519535 0.17534417575 0.11758180827 0.097313140803 0.25485685372 
0.25485685372 0.25485685372 0.24941226502 0.24901222689 0.2497608575 0.24631446582 0.24761538964 0.25621150415 0.26517612325 
0.28875182774 0.3046123175 0.35658587851 0.40152835295 0.42507333661 0.46854416518 0.48898745876 0.5380854197 0.58609823423 
0.60943799803 0.65897218464 0.67863502941 0.67863502941 0.70035225015 0.67433583798 0.6960511588 0.65513918673 0.62065233771 
0.59325572346 0.61592305586 0.58253307506 0.61499741002 0.59930501558 0.54971530936 0.5068851483 0.53520618585 0.56495930787 
0.5015697994 0.46715022165 0.41118981358 0.4022067141 0.32805808841 0.26625204915 0.25044308961 0.22347660114 0.1364026044 
0.10673567265 0.058074159563 0.02798251596 0.023117268384 0.055498505246 0.11193327322 0.1319306072 0.1835396337 0.23903813895 
0.38289871705 0.041642579099 0.44859883964 0.96855337877 0.96456954264 0.91250920279 0.91280719813 0.8933425323 0.45134461026 
0.35178093856 0.82109972674 0.74175105246 0.7107145984 0.32111598066 0.41545294301 0.38543918744 0.36339682478 0.38604010649 
0.45066874807 0.42980503426 0.42356376215 0.46482160144 0.39060433414 0.54042149336 0.58392922793 0.92915312206 0.68717368898 
0.88697040853 0.87061887914 1.225194664 1.4109152562 1.4083904589 1.3632613145 1.3691578673 1.3763217283 1.3821813594 
1.3931586026 1.3845794672 1.4006321871 1.3745288757 1.3263887272 1.3569852882 1.336269974 1.3245246612 1.3737665739 
1.3895595738 1.3549489294 1.3860322267 1.1140265635 1.1958864724 1.3769314633 1.3005930735 0.49439663856 1.1801658517 
0.67428646664 1.1118392324 1.0293091535 1.0232574765 0.65933730348 0.5949760384 0.5510475949 0.760840826 0.82793957783 
0.96962965328 0.79345681167 0.77765673475 0.76212489954 0.7242079961 0.70976357847 0.67483672241 0.65905067265 0.64713800242 
0.63445935604 0.62454600186 0.61814175064 0.53472213015 0.53418441501 0.55508575426 0.38998317527 0.37779795138 0.36631767459 
0.2740996418 0.29926054245 0.3461076795 0.48744324082 0.78189212008 0.2366001258 0.2366001258 0.2366001258 1.1176880606 
0.032246882435 0.032246882435 0 0.90712926478 1.0759437637 0.2366001258 0.2366001258 0.67301423827 0.85593695287 
1.0813584408 0.38326427964 0.70883305698 0.92069389862 0.85604056074 0.34760144696 0.53008789521 0.75528904761 0.88507745436 
0.74751474437 0.40614271094 0.88766574147 0.76530602869 0.36859899889 0.54032497047 0.85425708636 0.57590492559 0.4908883658 
0.50897301263 0.81263670493 0.22845682362 0.22913558407 0.80963360226 0.7773741816 0.4224007095 0.5201779635 0.7773741816 
0.95117025036 0.92390794901 0.36787473979 0.53799499782 0.69843363643 0.87228767187 0.19370460575 0.30003891666 0.57674168653 
0.70781867591 0.27228446154 0.37463413303 0.57674168653 0.6747575026 0.70781867591 0.82265208848 0.79942475714 0.71405049504 
0.29225242848 0.50889435617 0.70716022315 0.76468989636 0.67611973382 0.66063882165 0.66063882165 0.54012748178 0.67611973382 
0.65544760286 0.63583025482 0.34884954368 0.65426630228 0.86467793187 0.6255121138 0.60626437264 0.58802892957 0.48557206022 
0.37725008702 0.469305149 0.469305149 0.469305149 0.45479412427 1.0893830472 0.62646668513 0.8060877085 1.0375747102 
0.76674170633 1.017888698 0.38062622453 0.52748861554 0.40293635825 0.40293635825 0.92069389862 0.55707591026 0.55707591026 
0.54462588732 0.65788974223 0.6974730003 0.70040280419 0.70040280419 0.69968544581 0.65247393641 0.83848412249 0.084631322078 
0.93977104641 0.91515559118 0.23997807261 0.96530481898 1.0915766682 0.3622641052 0.96530481898 0.37369080949 0.10680547756 
0.9917740808 0.9917740808 0.96530481898 0.93977104641 0.91515559118 0.4114351346 0.35657714581 1.0757959101 0.29501850052 
0.34130461602 0.29262590124 0.30791105236 1.2434231655 1.3410550357 1.2971900011 0.83848412249 0.34797754405 0.31083902345 
0.99601981089 1.0598848333 1.0486205071 1.0692343784 0.93871157135 1.0384518356 1.2223781866 1.180271564 0.93977104641 
0.9736573119 0.9470387078 2.3266855322 2.0671930819 1.1096245779 0.91515559118 0.37167288505 0.31522709681 0.26045241953 
1.4743302119 1.4424832397 1.3884422885 1.4155311149 1.2676052489 1.2547194341 0.97039451093 0.75696298789 0.685186152 
0.63991690568 0.59938760141 0.59443468712 0.41396734471 0.36746767159 0.12200411937 0.34848033969 0.34848033969 0.32607409233 
0.47129664443 0.47178921585 0.46987312744 0.48969073876 0.53160324318 0.53933838654 0.53489944855 0.53947975104 0.47941247858 
0.57035364939 0.51398981594 0.4720447102 0.43009982704 0.38203152604 0.33900638694 0.29720383451 0.27235448808 0.26102149293 
0.3046495111 0.34084800239 0.41376740993 0.55611876777 0.60768516101 0.66784163278 0.64712279779 0.60539768528 0.67154127689 
0.784190878 0.90442536877 0.96019117833 0.88350959725 0.85388506387 0.48383232174 0.99075530248 0.48740587541 1.1726207902 
0.99535346148 0.39277446402 1.4108957636 1.3796267729 1.810825497 1.5707963268 1.5374225528 0.69861340778 1.5041229577 
1.602469501 1.5707963268 0.3085779857 0.51339489055 1.3205227793 1.2808213541 0.74673824119 0.72410254623 0.5467517971 
1.180271564 1.1395750017 0.46265760581 1.4081270308 0.46973417315 1.0833525227 1.4469878038 1.4164768391 1.3639887464 
0.74510992112 0.36472898861 0.6331591462 1.1551356642 0.70380984272 0.64850132277 0.83998647546 0.7213178808 1.3225245591 
1.5366069181 1.3256414715 1.2865546513 1.8482777572 0.70290736165 0.44737748557 0.38487303709 0.60491352167 1.9689718634 
0.60739903652 1.0780701763 1.0933475531 0.9550266379 1.8444026525 1.1805665297 1.0018695902 0.52927601196 1.8579734847 
0.46201363421 1.3749583943 1.2647802734 1.1563633371 0.99162689246 1.8024340551 0.44239285724 1.9858822438 0.75663969765 
0.46974878772 1.3141453642 1.5424217969 1.4106016108 1.6122533064 1.4606726143 1.442296548 1.1680017562 0.63824527241 
0.53495505636 1.4725298098 0.74243530829 1.1515365606 0.69096647463 1.4469878038 1.4318264159 0.97010104202 1.5013586162 
1.1611342176 1.4611734637 0.84184171498 0.61580612416 1.8759875122 1.8110880868 1.6365866775 0.4175163501 0.32559102454 
2.0020176519 0.51986532332 1.7778098303 1.0256149199 1.1955711143 0.83077128641 0.97661949819 1.2032125081 1.5000034835 
0.75520989602 1.5024972521 1.9585675452 0.80219873386 1.1459503934 1.3111626399 1.2286396559 1.0801178664 0.81563201614 
0.28208021595 0.20702696477 0.2438063944 0.55961113379 0.73212762759 1.5024972521 0.90469250906 0.85170465927 0.84258164117 
0.90111919595 1.1461724081 0.95663947929 0.90219024889 1.6826703536 0.26328275992 0.23741380205 0.89579085449 1.3795710986 
1.464827754 1.4615769181 1.6390694196 0.91377494671 1.8450656103 1.4551485923 0.86409162255 1.2766275617 0.87364560842 
0.70937165537 0.40293635825 0.70374505135 0.40965265007 1.4211128141 0.85093340995 1.368465195 0.33290855454 0.30774436698 
0.3531303434 1.1235462311 1.5081168923 0.33660990958 0.38156452931 1.9327110741 0.98323241758 1.4721531834 1.4615769181 
1.4211128141 1.384468612 1.3483235664 1.3127598546 0.87555677746 0.85146122171 0.23694520556 0.9085609886 0.98065804423 
0.96019212215 1.4820380775 1.441465163 0.98701152037 1.6061489402 2.1367358158 1.0337255723 1.2823026505 1.3957690529 
0.77553291544 0.77553291544 0.92364445497 1.4347227534 1.2147449549 1.5353555011 1.4978222845 1.458166374 1.4163918295 
0.8224344958 0.8224344958 0.9515821148 0.33250184567 0.85350194617 0.82277385526 0.92438320113 0.95427323087 1.2116539101 
0.94719541993 1.464827754 0.92581262108 1.5707963268 1.5330032092 1.4953177456 1.4154606336 1.3548997087 1.312051632 
1.2770576397 1.2672788811 0.90100481451 0.91510832207 0.92834815087 0.875537538 0.8215220485 0.73758511747 0.678205882 
0.61805040783 0.54345386051 0.47127416345 1.6050331989 0.44109605387 0.52901650126 0.81347080082 1.0226186254 0.42450597808 
0.39785416793 0.51752359692 1.3354860526 1.1708372907 1.1355226812 1.0389670625 0.39079021182 0.58706809173 0.61720296792 
0.52179007839 0.50280891013 0.50280891013 0.48703578899 0.469305149 0.45269296238 0.43854970367 0.42521087408 0.57305984048 
0.4104388085 0.4104388085 0.39775356242 0.38579065624 0.70389728396 0.61370922666 0.67057181597 0.82012740968 0.88841131698 
0.81482798149 0.92581262108 1.0334651136 0.61930010074 1.1819307669 1.2606848305 1.6354290738 1.0185572224 0.85856331112 
0.81756079319 1.2002975043 1.2133187102 1.1535098034 0.60360838806 0.7492551654 0.83435422721 1.2383458431 1.0542292589 
1.3033581443 1.2626306584 1.2203586038 1.2093008108 0.81756079319 1.3424063232 1.459460101 0.56070183934 1.0775254017 
0.79079393688 1.1746009597 1.2814499659 0.80280122537 0.93459471021 0.53508073398 0.51021537739 1.5631776926 1.7561923397 
0.31933895909 0.3476053096 0.27015899249 0.18967291523 0.1120211599 0.11039738782 1.2783107846 0.95427323087 0.85856331112 
0.17724300464 0.1474645855 0.11944365119 0.083038755066 0.52422395009 0.095017367525 0.81763676161 0.80280122537 0.17663560424 
0.13531668969 0.089482258754 0.14002740245 0.12605731896 0.4492758068 0.20799329665 1.4245302375 1.1715459758 0.76999632959 
0.48581947213 0.48892177845 0.32133560195 0.33578168419 0.35258105014 0.37118395671 0.3917181185 0.26151856064 0.28582902521 
0.31268271166 0.34244219543 0.37553129854 0.41244370318 0.46177200439 0.51556856065 0.57462309342 0.51529809827 0.58142765473 
0.65575875945 0.73891807331 0.78438976249 0.40856524712 0.65932517069 0.7678430753 1.7036494911 1.6397399152 0.79003270614 
0.75328139713 0.20429290315 0.20429290315 0.4492758068 0.74175105246 1.2531153 1.3487082068 0.48216477044 0.42625639584 
1.150861587 1.706949737 0.67263535962 0.8224344958 0.32177303336 0.40094985333 0.27687632353 0.33592139796 0.29850105954 
0.79515814235 0.85172129971 1.2626306584 0.73906231726 0.50063228551 0.13798260353 0.20249286931 1.4006614779 1.6221221305 
0.32619287155 0.26016448332 0.038303231972 0.23132854724 0.47990201786 0.32619287155 1.1331602622 0.56695293878 0.33261044383 
0.42325253683 0.71070475238 0.61900319221 0.7420948473 0.7200019829 0.54710561446 0.66063882165 1.5075597603 1.7674000134 
1.7352772938 1.4259132112 1.5106843497 1.7404023632 1.6765028879 1.2369442666 1.2703060055 0.27449233486 0.13662256902 
1.2639180142 1.2413585106 1.2036580519 0.58753231338 0.57742357724 0.57742357724 0.99470199361 0.48377449006 1.1313563609 
1.1042131409 1.1318497725 1.1654276775 1.2954215214 1.2153993594 1.7676360782 0.45854267191 1.3178820771 1.240585974 
0.66183092769 0.28637529135 0.36047547186 0.23698083845 1.0626389276 1.0077671879 1.186311727 1.239372413 1.2089359649 
0.73054688695 1.4506304042 1.4518436332 0.43437927892 0.55115884226 0.9957955508 0.9957955508 0.9957955508 1.915779692 
1.1220441843 0.8932846803 0.84246930055 0.52935607063 0.61900319221 0.71405049504 0.083662428595 0.27023348116 0.59039216879 
0.56635266913 0.94395539798 0.50309883301 0.83848412249 0.56004200381 0.68909389673 0.18049685534 0.16278140806 0.29517908586 
0.73684584732 1.9834198518 0.87562334661 0.98518419938 1.2336290872 0.93939305603 0.50494404898 1.5707963268 0.55819935886 
0.99976340614 1.6544495606 1.6260589297 1.1885006435 1.1574382004 1.6236146969 1.5115296332 0.69643637392 1.7561748643 