# vtk DataFile Version 5.1
vtk output
ASCII
DATASET POLYDATA
POINTS 9584 double
4.9950001985 31.860001266 4 4.9950001985 31.995001271 4 4.9950001985 32.130001277 4 
4.9950001985 32.265001282 4 4.9950001985 32.400001287 4 4.9950001985 32.535001293 4 
4.9950001985 32.670001298 4 4.9950001985 32.805001304 4 4.9950001985 32.940001309 4 
4.9950001985 33.075001314 4 4.9950001985 33.21000132 4 4.9950001985 33.345001325 4 
4.9950001985 33.48000133 4 4.9950001985 33.615001336 4 4.9950001985 33.750001341 4 
4.9950001985 33.885001346 4 4.9950001985 34.020001352 4 5.1300002038 31.320001245 4 
5.1300002038 31.45500125 4 5.1300002038 31.45500125 4.5 5.1300002038 31.590001255 4 
5.1300002038 31.590001255 4.5 5.1300002038 31.725001261 4 5.1300002038 31.725001261 4.5 
5.1300002038 31.860001266 4.5 5.1300002038 31.995001271 4.5 5.1300002038 34.155001357 4 
5.1300002038 34.290001363 4 5.1300002038 34.425001368 4 5.1300002038 34.560001373 4 
5.1300002038 34.560001373 4.5 5.1300002038 34.695001379 4 5.1300002038 34.695001379 4.5 
5.1300002038 34.830001384 4 5.1300002038 34.830001384 4.5 5.1300002038 34.965001389 4 
5.1300002038 34.965001389 4.5 5.1300002038 35.100001395 4 5.1300002038 35.100001395 4.5 
5.1300002038 35.2350014 4 5.1300002038 35.2350014 4.5 5.1300002038 35.370001405 4 
5.1300002038 35.370001405 4.5 5.1300002038 35.505001411 4 5.1300002038 35.505001411 4.5 
5.1300002038 35.640001416 4 5.1300002038 35.640001416 4.5 5.1300002038 35.775001422 4 
5.1300002038 35.775001422 4.5 5.1300002038 35.910001427 4 5.1300002038 35.910001427 4.5 
5.1300002038 36.045001432 4 5.1300002038 36.045001432 4.5 5.1300002038 36.180001438 4 
5.1300002038 36.180001438 4.5 5.1300002038 36.315001443 4 5.1300002038 37.395001486 4 
5.1300002038 37.530001491 4 5.1300002038 37.665001497 4 5.1300002038 37.800001502 4 
5.1300002038 37.935001507 4 5.1300002038 38.070001513 4 5.2650002092 29.025001153 4 
5.2650002092 29.160001159 4 5.2650002092 29.295001164 4 5.2650002092 29.430001169 4 
5.2650002092 29.565001175 4 5.2650002092 29.70000118 4 5.2650002092 29.835001186 4 
5.2650002092 29.970001191 4 5.2650002092 30.105001196 4 5.2650002092 30.240001202 4 
5.2650002092 30.375001207 4 5.2650002092 30.510001212 4 5.2650002092 30.645001218 4 
5.2650002092 30.780001223 4 5.2650002092 30.915001228 4 5.2650002092 31.050001234 4 
5.2650002092 31.185001239 4 5.2650002092 35.370001405 4.5 5.2650002092 35.505001411 4.5 
5.2650002092 35.640001416 4.5 5.2650002092 35.775001422 4.5 5.2650002092 35.910001427 4.5 
5.2650002092 36.045001432 4.5 5.2650002092 36.180001438 4.5 5.2650002092 36.315001443 4.5 
5.2650002092 36.450001448 4 5.2650002092 36.450001448 4.5 5.2650002092 36.585001454 4 
5.2650002092 36.585001454 4.5 5.2650002092 36.720001459 4 5.2650002092 36.720001459 4.5 
5.2650002092 36.855001464 4 5.2650002092 36.855001464 4.5 5.2650002092 36.99000147 4 
5.2650002092 36.99000147 4.5 5.2650002092 37.125001475 4 5.2650002092 37.125001475 4.5 
5.2650002092 37.260001481 4 5.2650002092 37.260001481 4.5 5.2650002092 37.395001486 4.5 
5.2650002092 37.530001491 4.5 5.2650002092 37.665001497 4.5 5.2650002092 37.800001502 4.5 
5.2650002092 37.935001507 4.5 5.2650002092 38.070001513 4.5 5.2650002092 38.205001518 4 
5.2650002092 38.205001518 4.5 5.2650002092 38.340001523 4 5.2650002092 38.340001523 4.5 
5.2650002092 38.475001529 4 5.4000002146 28.890001148 4 5.4000002146 38.610001534 4 
5.4000002146 38.74500154 4 5.4000002146 38.880001545 4 5.4000002146 39.01500155 4 
5.4000002146 39.150001556 4 5.4000002146 39.150001556 4.5 5.5350002199 27.405001089 4 
5.5350002199 27.540001094 4 5.5350002199 27.6750011 4 5.5350002199 27.810001105 4 
5.5350002199 27.94500111 4 5.5350002199 28.080001116 4 5.5350002199 28.215001121 4 
5.5350002199 28.350001127 4 5.5350002199 28.485001132 4 5.5350002199 28.620001137 4 
5.5350002199 28.755001143 4 5.5350002199 39.285001561 4 5.5350002199 39.285001561 4.5 
5.5350002199 39.420001566 4 5.5350002199 39.555001572 4 5.6700002253 27.135001078 4 
5.6700002253 27.270001084 4 5.6700002253 39.690001577 4 5.6700002253 39.825001583 4 
5.6700002253 39.960001588 4 5.6700002253 40.095001593 4 5.6700002253 40.230001599 4 
5.6700002253 40.365001604 4 5.6700002253 40.500001609 4 5.8050002307 26.730001062 4 
5.8050002307 26.865001068 4 5.8050002307 27.000001073 4 5.8050002307 40.365001604 4 
5.8050002307 40.500001609 4 5.8050002307 40.635001615 4 5.8050002307 40.77000162 4 
5.940000236 26.325001046 4 5.940000236 26.460001051 4 5.940000236 26.595001057 4 
5.940000236 40.905001625 4 5.940000236 41.040001631 4 5.940000236 41.040001631 4.5 
5.940000236 41.175001636 4 5.940000236 41.175001636 4.5 5.940000236 41.310001642 4 
5.940000236 41.310001642 4.5 5.940000236 41.445001647 4 6.0750002414 26.055001035 4 
6.0750002414 26.190001041 4 6.0750002414 41.445001647 4.5 6.0750002414 41.580001652 4 
6.0750002414 41.715001658 4 6.2100002468 25.515001014 4 6.2100002468 25.650001019 4 
6.2100002468 25.785001025 4 6.2100002468 25.92000103 4 6.2100002468 41.850001663 4 
6.2100002468 41.985001668 4 6.2100002468 42.120001674 4 6.3450002521 25.110000998 4 
6.3450002521 25.245001003 4 6.3450002521 25.380001009 4 6.3450002521 42.255001679 4 
6.3450002521 42.390001684 4 6.4800002575 24.705000982 4 6.4800002575 24.840000987 4 
6.4800002575 24.975000992 4 6.4800002575 42.52500169 4 6.4800002575 42.660001695 4 
6.4800002575 42.795001701 4 6.4800002575 42.930001706 4 6.6150002629 24.16500096 4 
6.6150002629 24.300000966 4 6.6150002629 24.435000971 4 6.6150002629 24.570000976 4 
6.6150002629 43.065001711 4 6.7500002682 23.89500095 4 6.7500002682 24.030000955 4 
6.7500002682 43.200001717 4 6.7500002682 43.335001722 4 6.7500002682 43.470001727 4 
6.8850002736 23.625000939 4 6.8850002736 23.760000944 4 6.8850002736 43.605001733 4 
6.8850002736 43.740001738 4 7.0200002789 23.355000928 4 7.0200002789 23.490000933 4 
7.0200002789 43.875001743 4 7.0200002789 44.010001749 4 7.0200002789 44.145001754 4 
7.0200002789 44.28000176 4 7.0200002789 44.415001765 4 7.1550002843 23.085000917 4 
7.1550002843 23.220000923 4 7.1550002843 44.55000177 4 7.1550002843 44.685001776 4 
7.2900002897 22.815000907 4 7.2900002897 22.950000912 4 7.2900002897 44.820001781 4 
7.2900002897 44.955001786 4 7.2900002897 45.090001792 4 7.2900002897 45.225001797 4 
7.425000295 22.14000088 4 7.425000295 22.275000885 4 7.425000295 22.41000089 4 
7.425000295 22.545000896 4 7.425000295 22.680000901 4 7.425000295 45.360001802 4 
7.425000295 45.495001808 4 7.5600003004 21.870000869 4 7.5600003004 22.005000874 4 
7.5600003004 45.630001813 4 7.5600003004 45.765001819 4 7.5600003004 45.900001824 4 
7.6950003058 21.735000864 4 7.6950003058 46.035001829 4 7.8300003111 21.330000848 4 
7.8300003111 21.465000853 4 7.8300003111 21.600000858 4 7.8300003111 46.170001835 4 
7.8300003111 46.30500184 4 7.8300003111 46.440001845 4 7.9650003165 21.060000837 4 
7.9650003165 21.195000842 4 7.9650003165 46.575001851 4 8.1000003219 20.790000826 4 
8.1000003219 20.925000831 4 8.1000003219 46.710001856 4 8.2350003272 20.655000821 4 
8.2350003272 46.845001861 4 8.2350003272 46.980001867 4 8.3700003326 20.520000815 4 
8.3700003326 47.115001872 4 8.3700003326 47.250001878 4 8.505000338 20.250000805 4 
8.505000338 20.38500081 4 8.505000338 47.385001883 4 8.6400003433 19.980000794 4 
8.6400003433 20.115000799 4 8.6400003433 47.520001888 4 8.6400003433 47.655001894 4 
8.7750003487 19.845000789 4 8.7750003487 47.790001899 4 8.7750003487 47.925001904 4 
8.9100003541 19.575000778 4 8.9100003541 19.710000783 4 8.9100003541 48.06000191 4 
8.9100003541 48.195001915 4 9.0450003594 19.305000767 4 9.0450003594 19.440000772 4 
9.0450003594 48.33000192 4 9.0450003594 48.465001926 4 9.1800003648 19.170000762 4 
9.1800003648 48.600001931 4 9.3150003701 19.035000756 4 9.3150003701 48.735001937 4 
9.4500003755 18.900000751 4 9.4500003755 25.515001014 6 9.4500003755 25.650001019 6 
9.4500003755 25.785001025 6 9.4500003755 25.92000103 6 9.4500003755 48.870001942 4 
9.4500003755 49.005001947 4 9.5850003809 18.36000073 4 9.5850003809 18.495000735 4 
9.5850003809 18.63000074 4 9.5850003809 18.63000074 4.5 9.5850003809 18.765000746 4 
9.5850003809 18.765000746 4.5 9.5850003809 24.840000987 6 9.5850003809 24.975000992 6 
9.5850003809 25.110000998 6 9.5850003809 25.245001003 6 9.5850003809 25.380001009 6 
9.5850003809 49.140001953 4 9.7200003862 18.090000719 4 9.7200003862 18.225000724 4 
9.7200003862 18.36000073 4.5 9.7200003862 18.495000735 4.5 9.7200003862 23.490000933 6 
9.7200003862 23.625000939 6 9.7200003862 23.760000944 6 9.7200003862 23.89500095 6 
9.7200003862 24.030000955 6 9.7200003862 24.16500096 6 9.7200003862 24.300000966 6 
9.7200003862 24.435000971 6 9.7200003862 24.570000976 6 9.7200003862 24.705000982 6 
9.7200003862 49.275001958 4 9.7200003862 49.410001963 4 9.8550003916 17.955000713 4 
9.8550003916 18.225000724 4.5 9.8550003916 23.355000928 6 9.8550003916 49.545001969 4 
9.990000397 17.955000713 4.5 9.990000397 18.090000719 4.5 9.990000397 23.085000917 6 
9.990000397 23.220000923 6 9.990000397 49.680001974 4 9.990000397 49.815001979 4 
10.125000402 17.685000703 4.5 10.125000402 17.820000708 4.5 10.125000402 17.955000713 4.5 
10.125000402 22.950000912 6 10.125000402 49.950001985 4 10.125000402 50.08500199 4 
10.260000408 17.415000692 4.5 10.260000408 17.550000697 4.5 10.260000408 17.820000708 5 
10.260000408 22.815000907 6 10.260000408 50.220001996 4 10.395000413 17.280000687 4.5 
10.395000413 17.685000703 5 10.395000413 22.680000901 6 10.395000413 50.355002001 4 
10.395000413 50.490002006 4 10.530000418 16.875000671 4.5 10.530000418 17.010000676 4.5 
10.530000418 17.145000681 4.5 10.530000418 22.41000089 6 10.530000418 22.545000896 6 
10.530000418 50.625002012 4 10.665000424 16.60500066 4.5 10.665000424 16.740000665 4.5 
10.665000424 16.875000671 5 10.665000424 17.145000681 4.5 10.665000424 17.145000681 5 
[...]
CELL_DATA 9583
SCALARS angle%0A[rad] double
LOOKUP_TABLE default
0 1.1095456937 1.090229335 0.90712926478 0.87900885969 1.259803203 0.39462188753 0.74074448668 0.72655849606 
0.65099532381 0.58792467281 0.5348810204 1.0032009183 1.0245303562 1.0500375296 1.0790003026 0.89950923805 0.88726674964 
0.74739748868 0.76047905169 0.65937805104 0.61513501917 0.51722190375 0.26900170708 0.50156672583 0.14701208943 0.25499165718 
0.19732973216 0.36424529135 1.3871760189 0.33500552794 1.3607219015 0.15816274624 0.13286102378 0.094393789679 0.13011343771 
0.073474825674 0.036957548105 0.034860291313 0.089179955122 0.14357375799 0.17070669129 0.17853792822 0.20486193651 0.19505982686 
0.20486193651 0.16501906198 0.22181155367 0.192383631 0.17694217697 0.20290987547 0.078659138709 0.10288591585 0.21648887008 
0.44725249966 1.3127659679 1.2869565668 0.1225665699 0.15831048104 0.19504414813 0.19504414813 0.21199813972 0.24895999911 
0.2164821545 0.21847910852 0.2521042812 0.21275199432 0.16023746864 0.12916539129 0.058606522014 0.058606522014 0.042851652962 
0.014745149157 0.02404200037 0.056608189354 0.10500383308 0.1754453996 0.15217202363 0.14006635212 0.11600463648 0.12869458002 
0.18071407226 0.16327313271 0.14346303361 0.12658550882 0.10572325351 0.10308385211 0.10308385211 0.058315737075 0.036772086951 
0.035584230574 0.090185304342 0.090185304342 0.12619479469 0.17107935251 0.13342517019 0.15847210175 0.17298804645 0.12390001844 
0.16501408116 0.21087580714 0.19035249147 0.31815227834 0.44264117476 0.097069521282 0.06307770981 0.059970078566 0.10781528656 
0.15074736538 0.13280214949 0.21146365257 0.097106150474 0.1143017668 0.097106150474 0.06056051726 0.072624820626 0.072086479472 
0.073809857706 0.080473764952 0.053365182918 0.12414533938 0.059758297912 0.1848348924 0.10932281592 0.13292706016 0.15105103588 
0.1265496155 0.062352629467 0.031871402451 0.083965336292 0.093492474735 0.15313678364 0.076915225224 0.076915225224 0.16094104011 
0.057398114462 0.03646381696 0.03646381696 0.061013679534 0.07477300683 0.082275894921 0.13954927062 0.10018440824 0.13210447873 
0.26496656056 0.082847812786 0.042897070745 0.047587035372 0.05325466139 0.071820352799 0.11400874075 0.16060473573 0.16060473573 
0.29880989349 0.44704831992 0.13612153413 0.1124290268 0.12501323994 0.15606065087 0.14438762946 0.10229062656 0.073859891201 
0.162919634 0.182813804 0.17071208215 0.085452613719 0.14018033441 0.10662321034 0.1754453996 0.119224911 0.13234090733 
0.12512709066 0.079897994013 0.11050609545 0.093383961422 0.053720016356 0.10648276426 0.081351652565 0.14769309432 0.10058716048 
0.026416002513 0.12952311124 0.033101994153 0.042607350461 0.042525475032 0.083230347214 0.037593204417 0.026750893396 0.075436763564 
0.15840012132 0.13224159792 0.02768842671 0.037518811748 0.059335138024 0.12291679976 0.14267431783 0.20283938056 0.46406747689 
1.4950700439 0.10310710873 0.076915225224 0.10937904721 0.14296627563 0.064121637451 0.10955872106 0.225921099 0.16836491682 
0.2066523646 0.26222015428 0.46711408841 0.11955766367 0.13926365225 0.12055534851 0.084246419184 0.10424734274 0.09157441144 
0.14438762946 0.14438762946 0.074131812054 0.11210093578 0.18014091779 0.19510792254 0.23300785292 0.18600161523 0.14456648099 
0.060300643582 0.11397182685 0.097041371296 0.085224345466 0.059006995298 0.074131812054 0.069976148395 0.065133787887 0.038054528324 
0.097044096901 0.17877760359 0.37497102456 0.34854082032 0.22015018223 0.13455758111 0.071951149284 0.13280214949 0.097044096901 
0.097044096901 0.073978825612 0.015023970385 0.032702906955 0.082100003482 0.14402387265 0.11052671408 0.068312304488 0.060300643582 
0.31765945024 0.040404323448 0.062764734797 0.084638093885 0.21146365257 0.11086736701 0.10758301464 0.11947538402 0.15520541673 
0.15504848763 0.15048339443 0.036724508396 0.096600871062 0.13418873322 0.1754453996 0.20121015817 0.26542689251 0.36302809555 
0.51447026158 0.52129203866 0.46318552299 0.039984864823 0.096871268393 0.081817169865 0.11405416391 0.097044096901 0.085174925961 
0.15652408488 0.080823550303 0.13413987316 0.2164722586 0.053674912442 0.026837456221 0.026837456221 0.059688973594 0.026837456221 
0.037726723834 0.037788137762 0.032046589097 0.047264923301 0.042743240542 0.037788137762 0.059421181911 0.037788137762 0.051857628024 
0.037788137762 0.13681347087 0.068115631534 0.13681347087 0.03006837117 0.12702305801 0.20976423868 0.18288829416 0.19028594244 
0.16372573068 0.11111073531 0.085174925961 0.038116654675 0.060208740479 0.085202728028 0.060318182082 0.085311065802 0.11111073531 
0.14015102677 0.14382923718 0.12235626184 0.12862351618 0.11119839712 0.098161356966 0.093718826816 0.13686081664 0.038165226606 
0.10918356136 0.11052671408 0.060300643582 0.06691571222 0.084638093885 0.10999779382 0.059758297912 0.032216417883 0.037788137762 
0.1848348924 0.096879442469 0.15652408488 0.13446679326 0.1368057728 0.18941468588 0.18927343163 0.16320923891 0.13707901563 
0.096857927381 0.060086542873 0.026866243494 0.036506477782 0.036238425225 0.023042772255 0.044817573449 0.084977746722 0.11052671408 
0.15347190316 0.10719529028 0.2382227218 0.16332280593 0.1873292649 0.13399584294 0.037834569676 0.053558429449 0.082870715606 
0.093011541879 0.11259031366 0.13399459469 0.15123698791 0.2642107663 0.35772428549 0.44112368204 0.38140488296 1.6244326355 
0.77092523535 1.5947999009 1.6087138274 0.41458200232 1.4221697316 0.10392798036 0.14953124275 0.20349533837 0.20644737055 
0.27302472687 0.39540893464 1.4583659695 0.36006484879 0.92782068538 0.89251527963 0.97802304003 0.95216253779 1.4833432571 
1.4816384273 1.5707963268 1.2286813537 1.337643322 1.3023115005 1.2670833431 1.1813642485 1.1582010906 1.1198858172 
1.0216540626 1.0139712491 0.97333026988 0.8297897184 0.83994026641 0.79657958439 0.75158941467 0.60995407135 0.64623465111 
0.58806180622 0.76410891754 0.66062218406 0.45769525743 0.40593354904 0.60224435397 0.52218902139 0.2995759334 0.2523444799 
0.47631855412 0.46264110928 0.099581293364 0.27180349762 0.28390603482 0.30202071176 0.32626750437 0.2434916532 0.27821815512 
0.22843156352 0.2977335723 0.27082807921 0.32772150712 0.2977335723 0.40765594727 0.349585731 0.27080515169 0.48570729798 
0.44808973785 0.87011627062 0.47321078595 1.0462194238 1.1360943633 1.1225733752 1.0780453819 1.0324365391 0.98592119258 
0.95769612625 0.9387000173 1.4542979251 1.261009271 1.5460381321 0.94540772026 0.89183652538 0.86029000965 0.83263560328 
0.68745829486 0.50832856759 0.507582837 0.49223419668 0.47043253643 0.46871248257 0.47263251821 0.51362916367 0.61216033888 
0.1441384863 0.13939691546 0.37484438184 0.12312654584 0.13495552943 0.50444276465 0.69981821279 0.672581958 0.6055446636 
0.63014664459 0.67910959725 0.76474808369 0.84833167739 0.95477800913 1.0904811342 0.72378066569 0.22364847542 0.51779297609 
0.37995755628 0.26745813877 0.25864802674 0.25225460076 0.25225460076 0.25225460076 0.25225460076 0.49271128401 0.35760393148 
0.46586216961 0.75140577727 0.35760393148 0.46586216961 0.75140577727 0.60087238002 0.61635319406 0.57870070526 0.57246243517 
0.62169915823 0.61541960648 0.57668046103 0.53737627035 0.4979743497 0.45886589477 0.42222746047 0.3867413717 0.25594848819 
0.25439396159 0.21375362772 0.25188640682 0.2952451123 0.20460187851 0.22407961614 0.18457574938 0.24236258015 0.19307726467 
0.26984915594 0.24497866313 0.24497866313 0.22082876973 0.19739555985 0.18164883 0.038740297663 0.039751775396 0.0064934152282 
0.090988942799 0.19739555985 0.18164883 0.18164883 0.18164883 0.18164883 0.5033993844 0.42490731134 0.48040581658 
0.38687571773 0.463647609 0.3217505544 0.42343940616 0.88708701516 0.26060239175 0.42366892188 0.76499283271 0.74541947627 
0.47927133762 0.74541947627 0.72425000075 0.72425000075 0.0075186553123 0.027515989285 0.10598435799 0.10598435799 0.10598435799 
0.10598435799 0.083141231888 0.25402461515 0.16966823306 0.17532551248 0.18227951181 0.13780643163 0.14123693516 0.1577426789 
0.16499092039 0.18976501354 0.22706282914 0.25457742941 0.127729069 0.14230357747 0.14230357747 0.26780631545 0.26244346665 
0.18284577789 0.19704625131 0.18145837867 0.11397225952 0.1202499274 0.15286592393 0.15286592393 0.15286592393 0.15286592393 
0.17726193912 0.2419633593 0.37648827677 0.69395712757 0.66596923738 0.18534795 0.3272450046 0.16309529221 0.15865526219 
0.068143585867 0.10759678696 0.01574672985 0.063329833127 0.055498505246 0 0.1401017244 0.19739555985 0.1792760868 
0.19347683233 0.21337647452 0.19347683233 0.21571137087 0.21571137087 0.17422752727 0.17422752727 0.19518030691 0.17537557561 
0.17537557561 0.16227825865 0.19091558979 0.15209748235 0.17093781293 0.19200349813 0.19200349813 0.2372542052 0.21481466664 
0.25917226681 0.2372542052 0.21481466664 0.19285890582 0.23208593428 0.20235456144 0.24399947459 0.21350183294 0.23423017266 
0.22670111815 0.2502115346 0.22951821637 0.26721124557 0.24702043516 0.18893384046 0.22418893629 0.21501488175 0.17838644296 
0.16721372352 0.23773824259 0.2270624916 0.18848710955 0.17478933618 0.233233341 0.22073399198 0.19541732306 0.15137544373 
0.26461360168 0.22441600904 0.17985349979 0.15660187698 0.096839005261 0.049255901984 0.035699112679 0.29423456511 0.29423456511 
0.12445629114 0.11627316775 0.15233751051 0.14415438711 0.18044255797 0.16894269715 0.13814722338 0.13441589742 0.10276743951 
0.15910223947 0.12800905867 0.12435499455 0.12043344602 0.109834563 0.077966633832 0.14794943531 0.14435232852 0.13405128121 
0.10244385351 0.18113227147 0.17850760558 0.16921266317 0.13863973713 0.13497674985 0.13082739607 0.12608809506 0.093006382699 
0.08663704208 0.19739555985 0.19739555985 0.19739555985 0.19739555985 0.19739555985 0.16977827397 0.16977827397 0.16977827397 
0.16977827397 0.1418970546 0.1418970546 0.19200752403 0.16465872155 0.19156132033 0.19379845306 0.19379845306 0.19379845306 
0.16628246378 0.16628246378 0.16628246378 0.16628246378 0.16628246378 0.19379845306 0.19156132033 0.16465872155 0.19200752403 
0.19589855498 0.19589855498 0.16891750379 0.16891750379 0.16891750379 0.16891750379 0.16891750379 0.16891750379 0.16891750379 
0.16891750379 0.16891750379 0.19608799122 0.16977827397 0.16977827397 0.14275782478 0.14275782478 0.17037511066 0.17037511066 
0.19769071923 0.20407021801 0.14339405947 0.14339405947 0.17070966804 0.17708916682 0.14156993653 0.14794943531 0.14794943531 
0.17562966008 0.17562966008 0.20291020983 0.21109333322 0.21109333322 0.18357734394 0.18357734394 0.18357734394 0.15233751051 
0.15233751051 0.15233751051 0.15233751051 0.15233751051 0.17985349979 0.17985349979 0.20687394898 0.20687394898 0.23337376825 
0.24398561479 0.21610439543 0.21610439543 0.24263216763 0.21610439543 0.24263216763 0.18848710955 0.18848710955 0.1547920022 
0.16117150098 0.21501488175 0.21501488175 0.1547920022 0.18769927318 0.1547920022 0.1813197744 0.12711177743 0.15363954963 
0.091648104287 0.11817587649 0.091648104287 0.091648104287 0.11817587649 0.091648104287 0.091648104287 0.11817587649 0.12995984279 
0.1423925947 0.099668652491 0.11291966075 0.069453325995 0.083636771987 0.028624205187 0.0089084503017 0.024244671143 0.024091723425 
0.019009116887 0.031904064485 0.012639776268 0.032341660181 0.0047243742997 0.026527772199 0.031904064485 0.0075186553123 0.046525106172 
0.017619321898 0.040744823729 0.031904064485 0.032341660181 0.053639771327 0.019009116887 0.090659887201 0.0053762922857 0.077764939603 
0.090659887201 0.077764939603 0.399515494 0.3729877218 0.2153079113 0.24933469618 0.23700992996 0.2153079113 0.18950181791 
0.18950181791 0.18950181791 0.20724189216 0.20294638593 0.17313688803 0.15408993822 0.1748974496 0.17018050345 0.19307726467 
0.18894505678 0.15947336945 0.13016888253 0.12435499455 0.094313951327 0.070991608826 0.12062366858 0.098507598112 0.090988942799 
0.058986609695 0.025745383227 0.099899439471 0.052860762243 0.042657034749 0.028769038818 0.012930313815 0.044170147245 0.11942892602 
0.11942892602 0.11942892602 0.11942892602 0.097726907359 0.097726907359 0.097726907359 0.097726907359 0.07677189127 0.07677189127 
0.056543436945 0.056543436945 0.056543436945 0.14204873062 0.14720332415 0.15301721213 0.14152419854 0.090173150807 0.095637577291 
0.10200691791 0.10952557322 0.099668652491 0.11065722117 0.12435499455 0.1418970546 0.16514867741 0.19739555985 0.22611297711 
0.30288486837 0.15895296983 0.28330796438 0.74695557338 0.14085212291 0.16428533278 0.16428533278 0.18843522618 0.14405687846 
0.14405687846 0.14405687846 0.12310186237 0.14725175577 0.14725175577 0.10139984371 0.12554973711 0.10857605873 0.12554973711 
0.15042022992 0.10857605873 0.13344655154 0.17252813952 0.12513884702 0.15027548174 0.15027548174 0.17608157513 0.15308800732 
0.1913388918 0.14966604369 0.17559216195 0.12623283381 0.17559216195 0.15215895207 0.15215895207 0.17559216195 0.15215895207 
0.17868672427 0.15453683087 0.17868672427 0.18929857081 0.21579839008 0.21579839008 0.16514867741 0.19164849669 0.23347331696 
0.19944054677 0.18897470627 0.20836003273 0.17252506704 0.21866894587 0.18230470635 0.15604847361 0.1176967492 0.16686721687 
0.12769641589 0.15471686508 0.11398650669 0.097670938254 0.067445271045 0.0218033979 0.079565889587 0.031904064485 0.095312619437 
0.045236607779 0.017619321898 0.063639438013 0.12095364712 0.090659887201 0.027111999128 0.019009116887 0.064132115001 0.0052355542564 
0.13029215973 0.027020449187 0.11487660542 0.37527082286 0.070471344579 0.18362232617 0.15137544373 0.10379234046 1.4901161194e-08 
0.1418970546 0.3217505544 0.10308160852 0.22441600904 0.20687394898 0.15660187698 0.12435499455 0.049255901984 0.027515989285 
0.16941304389 0.3217505544 0.043450895392 0.027515989285 0.12435499455 0.049255901984 0.027515989285 0.16941304389 0.49934672168 
0.23055293647 0.20327238672 0.20327238672 0.26646392852 0.25828080512 0.23100025537 0.23100025537 0.2033200306 0.2033200306 
0.14904371688 0.12067069863 0.11917369376 0.11269749156 0.083141231888 0.081365034822 0.079478244608 0.14242531657 0.13645727809 
0.1074279536 0.10619794192 0.07677189127 0.075349417123 0.07381332002 0.072149428045 0.070341111752 0.068368727722 0.066208903867 
0.035546897956 0.032922232067 0.030006788432 0.024385409173 0.0069203047502 0.01106965853 0.085505293678 0.085505293678 0.083141231888 
0.055498505246 0.055498505246 0.055498505246 0.027770636593 0.027770636593 0.027770636593 0.027770636593 0.027770636593 0.027770636593 
0.027020449187 0.054001500376 0.19200752403 0.19589855498 0.36351941898 0.3042005474 0.27706469702 0.27706469702 0.26882368993 
0.24260764717 0.24260764717 0.24260764717 0.21687989283 0.21687989283 0.21050307143 0.18636743282 0.18636743282 0.18636743282 
0.18636743282 0.18636743282 0.1192780955 0.18636743282 0.16371448717 0.16371448717 0.16371448717 0.16371448717 0.16371448717 
0.16371448717 0.16371448717 0.14344077 0.14344077 0.14344077 0.13927707698 0.19589855498 0.1696676912 0.1696676912 
0.16891750379 0.16977827397 0.11412641801 0.11412641801 0.14200763737 0.14200763737 0.16962492326 0.16962492326 0.16962492326 
0.16962492326 0.19694053182 0.2033200306 0.2033200306 0.67026718959 0.11235799107 0.11235799107 0.10850462515 0.10850462515 
0.2033200306 0.23100025537 0.23100025537 0.23100025537 0.25903099253 0.24023306474 0.17562966008 0.12043344602 0.14811367079 
0.14811367079 0.17539422054 0.18357734394 0.18357734394 0.21109333322 1.0336893915 0.51456933565 0.21109333322 0.23811378241 
0.16371448717 0.16371448717 0.14344077 0.14344077 0.14344077 0.14344077 0.14344077 0.23811378241 0.26461360168 
0.20687394898 0.23337376825 0.20687394898 0.3217505544 0.3217505544 0.20687394898 0.73783522799 0.11375366825 0.36915623408 
0.35825538527 0.20687394898 0.15197228043 0.20687394898 0.20687394898 0.17899272962 0.20549254889 0.15137544373 0.15137544373 
0.17787526301 0.18848710955 0.14418015566 0.1547920022 0.1547920022 0.12711177743 0.15363954963 0.17956566789 0.11817587649 
0.15228511814 0.19189043412 0.21957065888 0.19189043412 0.21769652751 0.15642676097 0.18223285436 0.12891077168 0.15471686508 
0.12769641589 0.15283305061 0.1146865034 0.1553949579 0.11653835313 0.15832750081 0.17450731855 0.19164849669 0.23684876095 
0.19801783731 0.21795821394 0.20553649262 0.16514867741 0.21454525791 0.23923159996 0.18842216078 0.22701652328 0.20211993415 
0.23436681658 0.21966199421 0.17559216195 0.12839265767 0.19831552279 0.13734127747 0.19283978271 0.1695881599 0.11153518407 
0.22407961614 0.16703368932 0.33473683732 0.30893074392 0.30893074392 0.48168903712 0.11629956574 0.5062644135 0.47143286427 
0.44365344713 0.42345871318 0.41361092053 0.42359804998 0.32725487641 0.30869317015 0.29206682872 0.29927600267 0.29489704399 
0.29934981025 0.24443305603 0.23373167675 0.23373167675 0.81006050095 0.50852442988 0.057003395005 0.024091723425 0.013887995931 
0.0039215485248 0.027515989285 0.12317347272 0.15727646319 0.15286592393 0.15286592393 0.15286592393 0.15286592393 0.15286592393 
0.15286592393 0.15286592393 0.15286592393 0.38193824854 0.39126502582 0.41235787782 0.44949283185 0.19625323785 0.26196739021 
0.28904453172 0.33119166071 0.45308808775 0.45615200514 0.40311508727 0.26366259694 0.26366259694 0.49409411168 0.26089926363 
0.90445680886 0.87939290661 0.85962629928 1.4994354194 1.4817296922 1.2962617673 1.3170064593 1.3382607315 1.3665589837 
1.3987845847 1.106672719 1.1639143369 0.70836492506 0.81195694372 0.90671613213 1.015717455 0.73485227542 0.7255649817 
0.69870460731 0.7062553057 0.70012629478 0.70229450067 0.69617703061 0.69916351205 0.70373367196 0.7107421535 0.73733187674 
0.68455977231 0.68034404357 0.629753061 0.55168629161 0.57742357724 0.57742357724 0.59619263137 0.56885056033 0.30153935199 
0.55891034706 0.54143176129 0.52491327776 0.14279653267 0.55051399184 0.53318576065 0.51681851382 0.40293635825 0.38998317527 
0.37779795138 0.36631767459 0.41772871692 0.48181395399 0.2603487706 0.2603487706 0.2603487706 0.2603487706 0.091328618351 
0.39028348476 0.39013810547 0.37733771297 0.37804211864 0.37821785034 0.38264419016 0.3833093658 0.38411990536 0.37350171181 
0.38332672736 0.38559331796 0.37765855842 0.37140298718 0.28112518728 0.29107776718 0.30529590838 0.32668256442 0.35590278357 
0.41305204847 0.53411423111 0.10850462515 0.46489307006 0.30538497579 0.33751970953 0.39575107396 0.2366001258 0.23455062178 
0.25210546207 0.31848080461 0.40299815735 0.51240493178 0.6625125067 0.23455062178 0.23455062178 0.28106624728 0.41069393085 
0.42402421759 0.37915157744 0.37915157744 0.37915157744 0.37915157744 0.28755184523 0.53892418099 0.53892418099 0.53892418099 
0.53595246777 0.5416924655 0.53595246777 0.10799539163 0.16132470087 0.27141101849 0.68421088846 0.68421088846 0.68421088846 
0.40980457417 0.68421088846 0.68421088846 0.68421088846 0.66346023607 0.39738961293 0.25837601975 0.34612478469 0.49643775552 
0.79092893682 0.76870626964 0.47171982131 0.28448921155 0.35269461797 0.32950751951 0.38149561648 0.3029569212 0.30946682907 
0.37905353464 0.27863575162 0.42523691407 0.23142143562 0.095528745419 0.093792866705 0.053726679343 0.056597310368 0.053726679343 
0.17769475628 0.24130102174 0.061775847164 1.1296095506 0.040100888557 1.1296095506 0.15884329276 0.20487335206 0.22603661573 
0.20339193792 0.25370254144 0.18419558694 0.20271544531 0.15152082132 0.21487699451 0.1828981515 0.13366134372 0.11963277742 
0.080778499583 0.086421022223 0.20429290315 0.16127749046 0.17898711873 0.16327313271 0.12916539129 0.13801331709 0.16775327428 
0.13441600723 0.1366729017 0.083136497366 0.12002882371 0.10665212929 0.16913163262 0.16913163262 0.080126569309 0.10422905422 
0.084156999914 0.070593353705 0.036886908958 0.026837203318 0.10776985396 0.19539780859 0.11994960785 0.24267116418 0.054611574808 
0.060283087213 0.076219594234 0.060300643582 0.060300643582 0.060300643582 0.01895144211 0.097044096901 0.076219594234 0.076219594234 