# vtk DataFile Version 5.1
vtk output
ASCII
DATASET POLYDATA
POINTS 11734 double
8.505000338 29.160001159 41 8.505000338 29.295001164 41.5 8.505000338 29.295001164 42 
8.505000338 29.295001164 42.5 8.6400003433 29.025001153 39.5 8.6400003433 29.025001153 40 
8.6400003433 29.025001153 40.5 8.6400003433 29.160001159 39 8.6400003433 29.160001159 39.5 
8.6400003433 29.160001159 40 8.6400003433 29.160001159 40.5 8.6400003433 29.430001169 43 
8.6400003433 29.430001169 43.5 8.6400003433 30.915001228 13 8.6400003433 30.915001228 13.5 
8.7750003487 28.755001143 36.5 8.7750003487 29.025001153 38 8.7750003487 29.025001153 38.5 
8.7750003487 29.025001153 39 8.7750003487 29.430001169 43.5 8.7750003487 29.430001169 44 
8.7750003487 30.915001228 12 8.7750003487 30.915001228 12.5 8.7750003487 30.915001228 13 
8.7750003487 30.915001228 13.5 8.7750003487 31.050001234 13 8.7750003487 31.050001234 13.5 
8.7750003487 31.050001234 14 8.7750003487 31.050001234 14.5 8.9100003541 28.080001116 34 
8.9100003541 28.080001116 34.5 8.9100003541 28.215001121 34.5 8.9100003541 28.350001127 35 
8.9100003541 28.620001137 36 8.9100003541 28.755001143 36.5 8.9100003541 28.890001148 37 
8.9100003541 28.890001148 37.5 8.9100003541 28.890001148 38.5 8.9100003541 29.430001169 44 
8.9100003541 29.430001169 44.5 8.9100003541 30.510001212 5.5 8.9100003541 30.645001218 1.5 
8.9100003541 30.645001218 2 8.9100003541 30.645001218 2.5 8.9100003541 30.645001218 3 
8.9100003541 30.645001218 3.5 8.9100003541 30.645001218 4 8.9100003541 30.645001218 4.5 
8.9100003541 30.645001218 5 8.9100003541 30.645001218 5.5 8.9100003541 30.645001218 6 
8.9100003541 30.645001218 6.5 8.9100003541 30.780001223 1 8.9100003541 30.780001223 6 
8.9100003541 30.780001223 6.5 8.9100003541 30.780001223 7 8.9100003541 30.780001223 7.5 
8.9100003541 30.915001228 0.5 8.9100003541 30.915001228 11 8.9100003541 30.915001228 11.5 
8.9100003541 31.185001239 15 8.9100003541 31.185001239 15.5 8.9100003541 31.185001239 16 
8.9100003541 31.185001239 16.5 8.9100003541 31.320001245 17 8.9100003541 31.45500125 17.5 
8.9100003541 31.590001255 18 8.9100003541 31.725001261 18.5 8.9100003541 31.725001261 19 
9.0450003594 27.810001105 33 9.0450003594 27.94500111 33.5 9.0450003594 27.94500111 34 
9.0450003594 28.485001132 35.5 9.0450003594 28.620001137 36.5 9.0450003594 29.430001169 43.5 
9.0450003594 29.430001169 44 9.0450003594 29.430001169 44.5 9.0450003594 30.645001218 1.5 
9.0450003594 30.645001218 2 9.0450003594 30.645001218 3 9.0450003594 30.780001223 7 
9.0450003594 30.780001223 7.5 9.0450003594 30.780001223 10 9.0450003594 30.780001223 10.5 
9.0450003594 30.915001228 8 9.0450003594 30.915001228 8.5 9.0450003594 30.915001228 9 
9.0450003594 30.915001228 9.5 9.0450003594 30.915001228 10 9.0450003594 30.915001228 10.5 
9.0450003594 31.860001266 19 9.0450003594 31.860001266 19.5 9.0450003594 31.995001271 19.5 
9.0450003594 32.400001287 23 9.0450003594 32.400001287 23.5 9.1800003648 26.730001062 28 
9.1800003648 26.865001068 28 9.1800003648 26.865001068 28.5 9.1800003648 27.000001073 2.5 
9.1800003648 27.000001073 3.5 9.1800003648 27.000001073 5.5 9.1800003648 27.000001073 6 
9.1800003648 27.000001073 6.5 9.1800003648 27.000001073 28.5 9.1800003648 27.000001073 29 
9.1800003648 27.135001078 29 9.1800003648 27.135001078 29.5 9.1800003648 27.540001094 32 
9.1800003648 27.6750011 32.5 9.1800003648 29.565001175 44 9.1800003648 29.565001175 44.5 
9.1800003648 30.510001212 2.5 9.1800003648 30.645001218 1 9.1800003648 30.645001218 1.5 
9.1800003648 30.645001218 6.5 9.1800003648 32.130001277 20 9.1800003648 32.130001277 20.5 
9.1800003648 32.265001282 24 9.1800003648 32.265001282 24.5 9.1800003648 44.820001781 88.5 
9.1800003648 44.820001781 89 9.1800003648 44.955001786 88 9.1800003648 44.955001786 88.5 
9.1800003648 47.925001904 117.5 9.1800003648 48.06000191 115 9.1800003648 48.06000191 115.5 
9.1800003648 48.06000191 116 9.1800003648 48.06000191 116.5 9.1800003648 48.06000191 117 
9.1800003648 48.06000191 117.5 9.1800003648 48.06000191 118 9.1800003648 48.195001915 118 
9.1800003648 48.195001915 118.5 9.1800003648 48.195001915 119 9.1800003648 48.195001915 119.5 
9.3150003701 26.865001068 25 9.3150003701 26.865001068 25.5 9.3150003701 26.865001068 26 
9.3150003701 26.865001068 26.5 9.3150003701 26.865001068 27 9.3150003701 26.865001068 27.5 
9.3150003701 27.000001073 1 9.3150003701 27.000001073 1.5 9.3150003701 27.000001073 2 
9.3150003701 27.000001073 2.5 9.3150003701 27.000001073 3 9.3150003701 27.000001073 3.5 
9.3150003701 27.000001073 5 9.3150003701 27.000001073 7 9.3150003701 27.000001073 7.5 
9.3150003701 27.000001073 25 9.3150003701 27.000001073 25.5 9.3150003701 27.000001073 26 
9.3150003701 27.000001073 26.5 9.3150003701 27.135001078 8 9.3150003701 27.135001078 8.5 
9.3150003701 27.135001078 9 9.3150003701 27.135001078 9.5 9.3150003701 27.135001078 10 
9.3150003701 27.135001078 10.5 9.3150003701 27.135001078 13 9.3150003701 27.135001078 13.5 
9.3150003701 27.135001078 14 9.3150003701 27.135001078 14.5 9.3150003701 27.135001078 15 
9.3150003701 27.135001078 15.5 9.3150003701 27.135001078 16 9.3150003701 27.135001078 16.5 
9.3150003701 27.270001084 30 9.3150003701 27.270001084 30.5 9.3150003701 27.405001089 31 
9.3150003701 27.405001089 31.5 9.3150003701 29.565001175 44.5 9.3150003701 29.565001175 45 
9.3150003701 30.510001212 2 9.3150003701 32.130001277 25 9.3150003701 32.130001277 25.5 
9.3150003701 32.265001282 21 9.3150003701 32.265001282 21.5 9.3150003701 32.265001282 22 
9.3150003701 32.265001282 22.5 9.3150003701 32.265001282 23 9.3150003701 32.265001282 23.5 
9.3150003701 32.265001282 24 9.3150003701 32.265001282 24.5 9.3150003701 44.685001776 89 
9.3150003701 44.685001776 89.5 9.3150003701 45.090001792 87.5 9.3150003701 45.225001797 87.5 
9.3150003701 48.06000191 111 9.3150003701 48.06000191 111.5 9.3150003701 48.06000191 112 
9.3150003701 48.06000191 112.5 9.3150003701 48.06000191 113 9.3150003701 48.06000191 113.5 
9.3150003701 48.06000191 114 9.3150003701 48.06000191 114.5 9.3150003701 48.195001915 120 
9.4500003755 26.865001068 26.5 9.4500003755 27.000001073 3 9.4500003755 27.000001073 3.5 
9.4500003755 27.000001073 5 9.4500003755 27.000001073 7.5 9.4500003755 27.000001073 24 
9.4500003755 27.000001073 24.5 9.4500003755 27.000001073 26.5 9.4500003755 27.135001078 1 
9.4500003755 27.135001078 1.5 9.4500003755 27.135001078 2 9.4500003755 27.135001078 2.5 
9.4500003755 27.135001078 8 9.4500003755 27.135001078 8.5 9.4500003755 27.135001078 9 
9.4500003755 27.135001078 9.5 9.4500003755 27.135001078 11 9.4500003755 27.135001078 11.5 
9.4500003755 27.135001078 12 9.4500003755 27.135001078 12.5 9.4500003755 27.135001078 13 
9.4500003755 27.135001078 13.5 9.4500003755 27.135001078 17 9.4500003755 27.135001078 17.5 
9.4500003755 27.135001078 18 9.4500003755 27.135001078 23 9.4500003755 27.135001078 23.5 
9.4500003755 27.135001078 24.5 9.4500003755 29.70000118 45 9.4500003755 29.70000118 45.5 
9.4500003755 29.70000118 46 9.4500003755 31.725001261 28.5 9.4500003755 31.725001261 29 
9.4500003755 31.725001261 29.5 9.4500003755 31.995001271 26 9.4500003755 31.995001271 26.5 
9.4500003755 44.55000177 89 9.4500003755 44.55000177 89.5 9.4500003755 45.360001802 87 
9.4500003755 45.360001802 87.5 9.4500003755 48.06000191 110.5 9.4500003755 48.195001915 120 
9.5850003809 26.865001068 26.5 9.5850003809 27.000001073 3 9.5850003809 27.000001073 3.5 
9.5850003809 27.000001073 4 9.5850003809 27.000001073 4.5 9.5850003809 27.000001073 26.5 
9.5850003809 27.135001078 12.5 9.5850003809 27.135001078 18.5 9.5850003809 27.135001078 19 
9.5850003809 27.135001078 19.5 9.5850003809 27.270001084 0.5 9.5850003809 27.270001084 21 
9.5850003809 27.270001084 21.5 9.5850003809 27.270001084 22 9.5850003809 27.270001084 22.5 
9.5850003809 29.70000118 46 9.5850003809 29.70000118 46.5 9.5850003809 31.590001255 27.5 
9.5850003809 31.590001255 28 9.5850003809 31.725001261 27.5 9.5850003809 31.725001261 28 
9.5850003809 31.725001261 30 9.5850003809 31.860001266 27 9.5850003809 44.55000177 89 
9.5850003809 44.55000177 89.5 9.5850003809 45.495001808 87 9.5850003809 45.495001808 87.5 
9.5850003809 48.06000191 110 9.5850003809 48.195001915 120 9.7200003862 27.270001084 20 
9.7200003862 27.270001084 20.5 9.7200003862 29.835001186 46.5 9.7200003862 29.835001186 47 
9.7200003862 31.725001261 27.5 9.7200003862 31.725001261 30 9.7200003862 31.860001266 27 
9.7200003862 31.995001271 25.5 9.7200003862 31.995001271 26 9.7200003862 31.995001271 26.5 
9.7200003862 44.55000177 89 9.7200003862 44.55000177 89.5 9.7200003862 45.630001813 87 
9.7200003862 45.630001813 87.5 9.7200003862 47.655001894 104 9.7200003862 47.790001899 104.5 
9.7200003862 47.790001899 105 9.7200003862 48.06000191 110 9.7200003862 48.195001915 120 
9.8550003916 29.835001186 46.5 9.8550003916 29.835001186 47 9.8550003916 31.725001261 30 
9.8550003916 31.725001261 30.5 9.8550003916 31.725001261 31 9.8550003916 31.725001261 31.5 
9.8550003916 44.55000177 89 9.8550003916 44.55000177 89.5 9.8550003916 45.765001819 87 
9.8550003916 45.765001819 87.5 9.8550003916 47.250001878 99.5 9.8550003916 47.250001878 100 
9.8550003916 47.250001878 100.5 9.8550003916 47.250001878 101 9.8550003916 47.250001878 101.5 
9.8550003916 47.385001883 102 9.8550003916 47.385001883 102.5 9.8550003916 47.520001888 103 
9.8550003916 47.520001888 103.5 9.8550003916 47.925001904 105.5 9.8550003916 48.195001915 107 
9.8550003916 48.195001915 107.5 9.8550003916 48.195001915 108 9.8550003916 48.195001915 108.5 
9.8550003916 48.195001915 109 9.8550003916 48.195001915 109.5 9.8550003916 48.195001915 120 
9.990000397 29.970001191 47 9.990000397 29.970001191 47.5 9.990000397 31.725001261 30 
9.990000397 31.725001261 30.5 9.990000397 31.725001261 31 9.990000397 31.725001261 31.5 
9.990000397 44.415001765 89 9.990000397 44.415001765 89.5 9.990000397 45.900001824 87 
[...]
CELL_DATA 11733
SCALARS angle%0A[rad] double
LOOKUP_TABLE default
0 1.3107563112 1.0861201483 0.91394196027 0.80083634444 0.65445995341 0.56887902055 0.24436262461 0.78068330718 
0.73060825185 0.69240552522 0.66941827383 0.67151673197 0.72940367453 0.95302995346 0.45869713862 0.60747300071 0.60944098816 
0.53827817571 0.54671084143 0.48032646083 0.49469257701 0.51552556211 0.54357488914 0.48003472932 0.51901086293 0.56995782889 
0.5099111213 0.58581063487 0.52886471688 0.65897218464 0.63226961007 0.57387205219 0.54397281175 0.76688739298 0.41106454739 
0.39305801918 0.37649033445 0.35393387841 0.60087896679 0.53049476695 0.59938535132 0.4511479999 0.53355200838 0.9489878776 
0.48556416639 0.58036204672 0.51116107722 0.58720018791 0.45844793652 0.80888535764 0.23248110043 0.5417558423 0.52203426869 
0.54206567948 0.53822581613 0.76410891754 0.35949838977 0.74727178777 0.73054688695 0.71405049504 0.51572674483 0.75261096218 
0.66063882165 0.66704078349 0.60465719707 0.76530602869 0.45985215545 0.67555356729 1.1913425382 0.74017563997 0.70240428238 
0.81817504787 0.7255649817 0.7255649817 0.70254347507 0.59285135365 0.62832934018 0.49512959211 0.46271621178 0.6428106418 
0.55096320057 0.48143367921 0.39144303916 0.32144488022 0.26332921824 0.2099542729 0.2130967206 0.34522870526 0.18733374645 
0.22884977559 0.28932655505 0.48429786554 0.080823550303 0.31765945024 0 0 0.26505775269 0.29191959709 
0.02699344294 0.02699344294 0.02699344294 0.02699344294 0.02699344294 0.18010558807 0.13686081664 0.26505775269 0.038165226606 
0.02699344294 0.053947605782 0.053947605782 0.053947605782 0.053947605782 0.053947605782 0.053947605782 0.02699344294 0.02699344294 
0 0 0 0.13418873322 0.02699344294 0.093718826816 0.13686081664 0.26505775269 0.038165226606 
0.038165226606 0.038165226606 0.11052671408 0.060300643582 0.060300643582 0.053947605782 0.26904737072 0.24267116418 0.32204213335 
0.053947605782 0.26904737072 0.060300643582 0.060300643582 0.20976423868 1.1478043821 1.0930821849 1.0371427214 0.86857528498 
0.80469349626 0.73621228376 0.69430914453 0.65374563751 0.57523524097 0.54715781324 0.52781742319 0.48717709594 0.42953047042 
0.38688443939 0.33626266526 0.12194798048 0.1880508805 0.15397431284 0.030930130828 0.026799982917 0.14536839622 0.30910034057 
0.33466521779 0.47612454735 0.4600440208 0.30744303082 0.078507688986 0.10975879479 0.15821430778 0.15821430778 0.099077337292 
0.080162897723 0.13032734416 0.15849637855 0.15849637855 0.20072238805 0.35416259002 0.33245101108 0.30463567898 0.28680027945 
0.28680027945 0.30934706042 0.37781158795 0.4873754609 0.45758653421 0.33241711975 0.30772706804 0.29509104114 0.20413314974 
0.18614662497 0.16422985964 0.16291662091 0.16291662091 0.047420857463 0.049537768525 0.067214473971 0.094523157566 0.12659997761 
0.19291021182 0.20976530747 0.32747130805 0.36532053968 0.39224570059 0.42657427866 0.46364707662 0.5034730798 0.55005574095 
0.47713925172 0.5489870413 0.36815178473 0.13937733222 0.18614662497 0.30222213004 0.43705728614 0.5807685125 0.82440544672 
1.1726909224 0.34796439909 0.21172653636 0.91802883824 0.92253219517 0.9062389274 1.0190235453 0.64198485729 0.62335237228 
0.57389922387 0.52355642146 0.47206397972 0.36928287536 0.32173427836 0.26258209183 0.20273377918 0.42025889112 0.36299658852 
0.23790103272 0.16836267482 0.12341383803 0.10801302016 0.18406519263 0.40196843683 0.54409112406 0.75270672995 1.0272145565 
0.25683351092 0.096857577106 0.56670461238 0.56597103742 0.55213523474 0.58836319656 0.58836319656 0.58836319656 0.26528214128 
0.24868421191 0.74565301278 0.70910952173 0.68913543173 0.67395444522 0.59867599509 0.62881059487 0.68820166067 0.80861101918 
0.78504037704 0.71791494518 0.55554568619 0.55128965547 0.41335652343 0.3731831924 0.31956790591 0.26173789261 0.11795088761 
0.074866122244 0.066776546378 0.15838840373 0.25685584931 0.39124528867 0.56320101927 0.7341547982 0.50583570997 0.28005771966 
0.34430340118 0.41239417402 0.48572372538 0.56580709519 0.47990201786 0.47708882587 0.25373804451 0.12545090073 0.08777447727 
0.061530840657 0.076865478371 0.12875195473 0.19755206009 0.27794133748 0.33557440026 0.072155247311 0.87929638474 0.86687752041 
0.21097294606 0.46769200749 0.9813350583 1.0020957101 0.93459471021 0.9085609886 0.88354270419 0.85951111486 0.77553291544 
0.75229647417 0.60605473007 0.34430340118 0.90066133833 0.1110775206 0.20607959008 0.32013838134 0.053947605782 0.053947605782 
0.053947605782 0.053947605782 0.02699344294 0 0.02699344294 0.10918356136 0.18864862103 0.36475182886 0.2382227218 
0.15458918817 0.11374613158 0.22454112 0.11405416391 0.11405416391 0.19966378087 0.084639198886 0.15615398149 0.15615398149 
0.059866843129 0.15840012132 0.10758301464 0.29810314132 0.16202251069 0.32143665945 0.13418873322 0.10758301464 0.18288829416 
0.15612882983 0.12952311124 0.16060473573 0.12952311124 0.27462745894 0.16060473573 0.30779225882 0.14438762946 0.14438762946 
0.18646019555 0.34522870526 0.11086736701 0.1848348924 0.11086736701 0.085174925961 0.18093225721 0.13280214949 0.085174925961 
0.085174925961 0.085174925961 0.085174925961 0.050378927854 0.11405416391 0.097044096901 0.097044096901 0.075739734269 0.2164722586 
0.060300643582 0.060300643582 0.11994960785 0.24267116418 0.076219594234 0.038165226606 0.038165226606 0.11052671408 0.2382227218 
0.060300643582 0.053947605782 0.32872661563 0.085174925961 0.085174925961 0.13829282668 0.23287011971 0.29096147926 0.23531224273 
0.13418873322 0.35346247999 0.097044096901 0.075739734269 0.085174925961 0.085174925961 0.085174925961 0.085174925961 0.060300643582 
0.02699344294 0.038165226606 0.32658660225 0.060300643582 0.060300643582 0.038165226606 0.038165226606 0.038165226606 0.038165226606 
0.15347190316 0.084638093885 0.085174925961 0.44250291263 0.15048339443 0.32658660225 0.076219594234 0.076219594234 0.076219594234 
0.076219594234 0.076219594234 0.30810994611 0.085174925961 0.1848348924 0.097044096901 0.097044096901 0.060300643582 0.30810994611 
0.097044096901 0.19421001463 0.11086736701 0.25958492406 0.24988171488 0.097044096901 0.076219594234 0.076219594234 0.076219594234 
0.076219594234 0.038165226606 0.2382227218 0.18288829416 0.053636308731 0.085469301734 0.15223964833 0.14324501784 0.31263264304 
0.037788137762 0.15840012132 0.13224159792 0.10648276426 0.16278140806 0.078040762198 0.16913163262 0.16913163262 0.14438762946 
0.14438762946 1.3564124494 1.4408830467 1.4148456508 1.3890712258 1.3635977353 1.3416958018 1.3086206928 1.278067154 
1.2438789657 1.2139944045 1.1843226269 1.1398316217 1.1086659321 1.078438438 0.98122711885 0.95104916925 0.92211684458 
0.8944000878 0.81098678448 0.78396435304 0.75833093384 0.73401331249 0.60905580071 0.58836319656 0.56887902055 0.55051399184 
0.42634058167 0.41230729192 0.39912017027 0.28252500473 0.27357776294 0.26516686309 0.25724657212 0.16371448717 0.52236019714 
0.54288681389 0.54632706163 0.56540871138 0.58554839581 0.60042837484 0.62582362702 0.64521400496 0.67068476504 0.69757544467 
0.49118691064 0.24638968644 0.084068672595 0.07036748537 0.066735506526 0.079009623842 0.10601371234 0.14391038474 0.19078086204 
0.24632707992 0.31105241827 0.38581242849 0.47151916303 0.56883817946 0.67781456443 0.79745617252 0.70939511271 0.95224486512 
0.06215753178 0.2284408521 0.18370168176 0.13922311182 0.095184979273 0.11961086091 0.16350843508 0.20837747807 0.25380807052 
0.38368407935 0.4293244666 0.47535804311 0.52185636812 0.66330895544 0.69736821596 0.49948841711 0.2771425416 0.026561171935 
0.10869825853 0.19474553456 0.28490768584 0.44712306981 0.52689551229 0.63017122108 0.73609049361 0.80220087345 0.95328889378 
0.87161926904 0.24544425001 0.05579308715 0.05579308715 0.22530000267 0.14833707452 0.10637408836 0.16207667887 0.26319685863 
0.47539389149 0.72159359996 0.66455947435 0.96061878829 1.2420294689 1.2155956315 1.1901406444 1.1217479467 1.098195723 
1.0788059895 1.0672497234 1.057544374 1.1235831413 1.0833525227 0.21868375982 0.36718965449 0.52105806048 0.73064092717 
0.69966330739 0.57305509151 0.54037203674 0.51539854963 0.41206027735 0.23748542258 0.08777447727 0.1302321768 0.31768911042 
0.50717036556 0.74462097508 0.11686493016 0.17908976996 0.44771537635 0.70617257732 0.61827430475 0.59655826441 0.54746931325 
0.44541195285 0.38808264398 0.32577338683 0.33980780659 0.26963298965 0.24211473554 0.20122980809 0.23852939097 0.33719279571 
0.51189126367 0.7247757651 0.73274882353 0.58863719508 0.44303155015 0.38783283792 0.76503975072 0.69578562702 0.66880177063 
0.64236136373 0.53622476343 0.52063292393 0.53834084216 0.55758197533 0.48799479397 0.25322370718 0.068021697972 0.46781898216 
0.43286289376 0.39492253499 0.35678397641 0.84234531116 0.85093340995 0.80928602895 0.79730540566 0.75592834372 0.16743953858 
0.27068208193 0.073663582904 0.83996542527 0.85093340995 0.88667664267 0.20949593148 0.43507126613 0.20645206578 0.45580445384 
0.35821734721 0.49461792164 0.5132439538 0.35735738968 0.056764221329 0.30937239516 0.093243152981 0.21010480121 0.056919967862 
0.26395677661 0.074060159587 0.1885223804 0.19975263539 0.13697112035 0.19797397514 0.10756832799 0.19797397514 0.15615250537 
0.17424519514 0.24130896266 0.21234606196 0.25024999364 0.28958098791 0.26357152386 0.28303908968 0.14994402009 0.16665130963 
0.21170209171 0.19158852101 0.3147635412 0.23841343058 0.22333263143 0.21585895569 0.2032944227 0.089842952158 0.1186689757 
0.11405416391 0.19966378087 0.39083806681 0.29646573303 0.32752159394 0.2504748289 0.31195455128 0.40600612682 0.42571952216 
0.45349840296 0.35951896626 0.33965508291 0.45048009794 0.44472427088 0.60529681815 1.7754066691 0.2759624183 0.14705197908 
0.11719969164 0.13585932283 0.10958064914 0.11742548339 0.17129801579 0.40357410429 0.53420279372 0.6959044949 0.90109743254 
0.73522909651 0.49570437503 0.269617989 1.139822981 1.4678943158 1.4412740427 1.3974136799 1.3714915098 1.3495795425 
1.3356963404 1.2953081003 1.3697125936 0.33083540502 0.22656253327 0.43934097307 1.0462821487 0.91825216827 0.86539835476 
0.83998647546 0.075001237512 0.11823336622 0.066285420162 0.21112807308 0.14098775284 0.077242798056 0.077234458248 0.22247777492 
0.32634699031 0.44249077405 0.5701519706 0.78972006101 0.62999607699 0.81417316045 0.37231879145 0.49341623736 0.49341623736 
0.23695274426 0.21061124475 0.57118588296 0.9657850837 0.94233428286 0.92147047932 0.85431365629 0.8699662819 0.83998647546 
0.83998647546 0.83998647546 0.24215956894 0.29517775199 0.16620843466 0.16258561744 0.25555900863 0.9905337797 0.98827936 
0.94395539798 0.25151730568 0.46271621178 0.4397529824 0.40841591292 0.22737620085 0.2736141942 0.13321157594 0.059743642598 
0.041941437384 0.18292285574 0.20244825411 0.18292285574 0.1256581982 0.059121039772 0.055525368643 0.059505808132 0.036001449696 
0.11111165794 0.11995830163 0.13869943593 0.15946649254 0.074511040933 0.042259077853 0.057125788026 0.064655764845 0.10191434589 
0.19021051244 0.55254533853 1.3573216808 1.3275602853 0.28817067424 0.086225026999 0.10176530673 0.10176530673 0.10339293815 
0.14901654941 0.17631958873 0.16242024123 0.12136429754 0.19695389703 0.17901680783 0.17793649419 0.19917696254 0.26852306632 
0.33769094864 0.33769094864 0.56109774743 0.24082362747 0.21341940183 0.14001537861 0.10657836391 0.075167413461 0.17317635213 
0.085079281462 0.16364201203 0.17056544434 0.17938504892 0.1856222853 0.20004702559 0.19516322111 0.2153603753 0.27423900599 
0.17061961929 0.34616766755 0.13266185459 0.079668596561 0.065353765923 0.046665948333 0.06144449184 0.10285312761 0.16041114218 
0.14542068812 0.10340109545 0.095602977281 0.19408855418 0.15165616846 0.17963979359 0.16385914931 0.15856872499 0.18014091779 
0.053947605782 0.070218603927 0.060300643582 0.060300643582 0.060300643582 0.060300643582 0.053947605782 0.22994337925 0.038165226606 
0.029354567059 0.017976220696 0.026954162841 0.060300643582 0.060300643582 0.060300643582 0.060300643582 0.060300643582 0.060300643582 
0.02699344294 0.2050863881 0.083965336292 0.16913163262 0.2907052874 0.15627163136 0.1754453996 0.24633200284 0.11600463648 
0.025900407941 0.0082379805931 0.35403342752 0.15347190316 0.080241127439 0.20976423868 0.15520541673 0.085174925961 0.26371184446 
0.47141083022 0.27023348116 0.095384107305 0.039937730927 0.083662428595 0.15615398149 0.3712303043 0.30053306059 0.31131945484 
0.023532184575 0.049982925827 0.079871945653 0.11547470203 0.21415627867 0.17742432465 0.21257480096 0.33780308576 0.10500383308 
0.054291701787 0.11547699881 0.073330814746 0.073330814746 0.057398114462 0.21500001779 0.16278140806 0.21652344461 0.19584214094 
0.19584214094 0.18045272083 0.18045272083 0.060296248577 0.060296248577 0.038116654675 0.076219594234 0.13467567676 0.13467567676 
0.15235654274 0.15235654274 0.19399672645 0.19399672645 0.085311065802 0.085311065802 0.086921600437 0.033737195637 0.029354567059 
0.032421929301 0.060300643582 0.060300643582 0.085174925961 0.085174925961 0.053947605782 0.053947605782 0.053947605782 0.02699344294 
0.053947605782 0.067397766388 0.11675162068 0.16118217616 0 0.02699344294 0.060300643582 0.060300643582 0.066981689732 
0.075324514878 0.10741566062 0.11981546179 0.2162129801 0.25514276141 0.29191959709 0.26505775269 0.11052671408 0.060300643582 
0.060300643582 0.16374473899 0.098161356966 0 0 0.31876237265 0.29191959709 0.26505775269 1.5977799408 
1.5707963268 0.02699344294 0.36935665706 0.16913163262 0.13681347087 0.45284886822 0.45284886822 0.34147011914 0.29182033414 
0.22139707321 0.43094131121 0.58907444523 0.70903927329 0.6969864391 0.68417143967 0.67052900224 0.62915681243 0.58790576509 
0.54677312841 0.46617381739 0.42469172698 0.38430357124 0.34553807609 0.27043786308 0.2590795922 0.25030318105 0.24546654664 
0.21247143876 0.22456244962 0.25588064237 0.30279550086 0.42919286092 0.5011716062 0.57929360875 0.66304966982 0.8431910854 
0.93580045054 1.0317621322 1.1300088535 1.2051053311 1.1930296825 1.2075281745 1.0449696921 0.85142369544 0.6518904501 
0.46172013207 0.32344574758 0.20496501357 0.11112963513 0.096901076453 0.096901076453 0.096901076453 0.096901076453 0.084931549555 
0.084931549555 0.10719529028 0.10719529028 0.038026843819 0.076178071089 0.12030465556 0.17223439645 0.19003250276 0.19350716651 
0.19350716651 0.21592293479 0.21592293479 0.22114228056 0.23633029942 0.14963474864 0.091763259763 0.11307586914 0.097333725857 
0.044430555483 2.1073424255e-08 0.16060473573 0.22901079961 0.26397432894 0.26397432894 0.22939042597 0.1956325141 0.20667087202 
0.12185809633 0.041484613207 0.045811991167 0.097044096901 0.097044096901 0.11405416391 0.11405416391 0.11405416391 0.18848097308 
0.097044096901 0.060300643582 0.26505775269 0.2382227218 0.18288829416 0.15612882983 0.07879910551 0.088955538252 0.1193408874 
0.12601970014 0.19408855418 0.19408855418 0.19408855418 1.4820806038 1.7205391223 1.7057742156 1.7017898678 1.6953377698 
1.700762622 1.7122850756 1.7228720781 1.7594715104 1.780338468 1.8946909307 2.0808720285 2.2006614386 2.069312118 
2.1777461669 2.0509430779 1.1945820788 0.33504030779 0.43630796782 0.17063964228 0.086892418552 0.055811676889 0.15149713165 
0.24305971209 0.16266008601 0.19238647699 0.22994337925 0.40461962372 0.12855325967 0.14491883827 0.057005809738 0.088433295482 
0.13280214949 0.20841514172 0.30810994611 1.4379642882 0.079575267845 0.18292285574 0.25302291822 0.26505775269 0.18093225721 
0.13280214949 0.26505775269 0.29181179321 0.42562075696 0.25091811133 0.16913163262 1.2106304459 1.502491201 1.4635618205 
1.4247091443 1.3899699601 1.372678243 1.3633881435 1.2945572321 1.2513864316 1.1856778752 0.14438762946 0.12016592259 
1.0098802841 0.92680595056 0.92680595056 0.2382227218 0.2382227218 0.27321480442 0.30810994611 0.2164722586 0.086225026999 
0.0069645571244 0.027969895778 0.098082823595 0.054962765233 0.22762098284 0.26354148563 1.232060395 1.2584145674 1.232060395 
1.2869565668 1.2602882364 1.2340685535 1.9294873624 1.7183334924 0.076219594234 0.072594773962 0.093718826816 0.13686081664 
0.26505775269 0.48560577923 0.23204055094 0.16118217616 0.59252933861 0.18292285574 0.15917967014 1.6681018356 1.4457285051 
1.5439588706 1.5438909599 0.26371184446 1.1130160058 1.0869315227 0.33319777554 0.24157467293 0.17368101709 0.12306806697 
0.10774762987 1.3974410983 1.3208216 1.2408630197 1.059144338 1.6219045039 1.5471424141 1.4685580702 1.0222253652 
1.0009205848 1.2655055003 0.11944298967 0.16060473573 0.16060473573 0.13681347087 0.12016592259 0.90069175645 0.91958417569 
1.2438592123 1.2063440528 1.2311011404 1.1004340171 0.18297233723 0.27462745894 0.30034799044 0.1885223804 1.3029650826 
1.2723977683 1.2438592123 0.95379673837 0.73670565392 0.50708636643 0.51914644262 0.27362437512 0.18851139375 0.50114512057 
0.46620223809 0.43537839963 0.3439958785 0.28827419442 0.1885223804 1.1979599649 0.82896681916 0.27872087347 1.5438909599 
1.5438909599 1.5168683361 0.33504030779 0.22454112 0.35801245892 0.49988114596 1.5227059736 0.46188610145 0.44339139005 
0.4983855146 0.72579099765 0.6006751946 0.41281149984 0.20494693226 1.176425263 1.1018215502 1.0097415343 0.98163528247 
1.4632522032 0.14105241956 0.46631058864 0.9036418697 0.56418471888 0.91984649307 0.44339139005 0.36302823959 0.37288231601 
0.36650896757 1.3114673689 1.2852250121 0.85337225576 0.63152075814 0.48505991845 0.29161500577 0.097822482004 1.4385345821 
1.4013864437 1.3419999087 0.41818117594 0.35108485853 0.1444488684 0.26754162275 0.13321419103 0.20910362094 0.3894315956 
0.1155316653 0.1885223804 0.11835013963 0.099763040006 0.044645079413 0.15687738211 0.13151654665 0.16830957574 0.28596694018 
1.2072383011 0.16732538559 0.28273979452 0.18725010733 0.13967873604 0.25199042105 1.1537851603 0.060176299465 0.24170798914 
0.02730644554 0.29706194961 0.25455248245 0.21060882467 0.19973865665 0.15945757758 0.13760978768 0.24417301262 0.2693908468 
0.23063259104 0.25108161307 0.23645505073 0.24877702053 0.18601442679 0.088515001239 0.22035361881 0.08052683756 0.15104832205 
0.12218973643 0.34775938103 0.14212080787 0.25167784424 0.91723689544 0.88044100303 0.84514639843 0.8119309545 1.2061865887 
0.081621676877 0.10499267213 0.16123677954 0.13224964903 0.2407698213 0.19408855418 0.10389094759 0.1517524293 1.4975932477 
1.57933147 1.5546600247 1.5305128698 1.5061048072 1.3681317511 1.3395337612 1.3114592118 1.2500648718 1.2201388 
1.1911699889 1.1632696602 1.0975399734 1.0431975722 0.99008063838 0.85663159233 0.80468719149 0.66599637348 0.63558374479 
0.60790596527 0.58328080784 0.4623088526 0.45075238006 0.44505249474 0.44587118147 0.36024188848 0.39058038009 0.42825551718 
0.47144705655 0.53063714718 0.51106854455 0.54475440309 0.55313839827 0.57903295994 0.72529189426 0.81940216816 0.97745190436 
0.36543924588 0.47529024157 0.31679335673 0.25440703538 0.35051662283 0.341096287 0.33112233876 0.32054984173 0.2064480939 
0.19200119827 0.17668868364 0.16044198009 0.14907747158 0.17996135869 0.47156511604 0.48043731835 0.50144898595 0.494739458 
0.47063194528 0.46588965269 0.46321474576 0.4406274845 0.41920252932 0.39888007787 0.29629516366 0.27166800129 0.28714818745 
0.18215647472 0.17531579875 0.17441832287 0.17223032177 0.19676154177 0.22355297832 0.27109764645 0.27557524657 0.29330733448 
0.11973433183 0.20802307165 0.21655923827 0.23001960968 0.19514651328 0.15889528095 0.12073080954 0.052743313226 0.066090167224 
0.1106485788 0.16945295608 0.21973159021 0.28020699102 0.35372181958 0.44388851959 0.55500587596 0.69144080549 0.85591323834 
1.0020018528 1.2583381128 0.32022877446 0.21238176692 0.39058265965 0.32222051619 0.17758859692 0.11171369552 0.28813961797 
0.74460414569 0.74130391292 0.77486228536 0.76576484366 0.75632607316 0.74746711169 0.74143117374 0.73992936331 0.7739951962 