# vtk DataFile Version 5.1
vtk output
ASCII
DATASET POLYDATA
POINTS 5242 double
23.490000933 59.535002366 91 23.490000933 59.535002366 91.5 23.490000933 59.535002366 92 
23.625000939 59.670002371 92 23.625000939 59.670002371 92.5 23.760000944 59.670002371 92.5 
23.89500095 59.805002376 93 24.030000955 58.320002317 107 24.030000955 58.320002317 107.5 
24.030000955 58.455002323 106.5 24.030000955 58.455002323 107 24.030000955 58.590002328 106 
24.030000955 58.590002328 106.5 24.030000955 59.805002376 93 24.030000955 59.805002376 93.5 
24.030000955 59.805002376 94 24.030000955 59.805002376 94.5 24.030000955 59.940002382 93.5 
24.16500096 58.185002312 107 24.16500096 58.185002312 107.5 24.16500096 58.725002334 106 
24.16500096 58.725002334 106.5 24.16500096 58.860002339 106 24.16500096 58.860002339 106.5 
24.16500096 59.805002376 94.5 24.16500096 59.940002382 94 24.16500096 59.940002382 94.5 
24.300000966 58.050002307 107 24.300000966 58.050002307 107.5 24.300000966 58.995002344 106 
24.300000966 58.995002344 106.5 24.300000966 59.805002376 94.5 24.300000966 59.940002382 94.5 
24.435000971 32.940001309 126 24.435000971 56.160002232 108 24.435000971 56.160002232 108.5 
24.435000971 56.295002237 108 24.435000971 56.295002237 108.5 24.435000971 56.430002242 108 
24.435000971 56.430002242 108.5 24.435000971 56.565002248 107.5 24.435000971 56.565002248 108 
24.435000971 56.565002248 108.5 24.435000971 57.915002301 107 24.435000971 57.915002301 107.5 
24.435000971 59.13000235 106 24.435000971 59.13000235 106.5 24.435000971 59.805002376 95.5 
24.435000971 59.940002382 94.5 24.435000971 59.940002382 95 24.570000976 32.940001309 126 
24.570000976 56.025002226 108 24.570000976 56.025002226 108.5 24.570000976 56.700002253 107.5 
24.570000976 56.700002253 108 24.570000976 56.835002258 107 24.570000976 56.835002258 107.5 
24.570000976 56.970002264 107 24.570000976 56.970002264 107.5 24.570000976 57.915002301 107 
24.570000976 57.915002301 107.5 24.570000976 59.265002355 106 24.570000976 59.265002355 106.5 
24.570000976 59.805002376 96 24.570000976 59.940002382 95 24.570000976 59.940002382 95.5 
24.705000982 32.400001287 125.5 24.705000982 32.805001304 125.5 24.705000982 32.940001309 125.5 
24.705000982 33.21000132 126 24.705000982 55.890002221 108 24.705000982 55.890002221 108.5 
24.705000982 57.105002269 107 24.705000982 57.105002269 107.5 24.705000982 57.780002296 107 
24.705000982 57.780002296 107.5 24.705000982 59.40000236 105.5 24.705000982 59.40000236 106 
24.705000982 59.940002382 96 24.705000982 59.940002382 96.5 24.840000987 32.400001287 125.5 
24.840000987 32.805001304 125.5 24.840000987 32.940001309 125.5 24.840000987 33.075001314 125.5 
24.840000987 54.270002156 109 24.840000987 54.270002156 109.5 24.840000987 54.270002156 110.5 
24.840000987 54.405002162 109 24.840000987 54.405002162 109.5 24.840000987 54.540002167 109 
24.840000987 54.540002167 109.5 24.840000987 54.675002173 109 24.840000987 54.675002173 109.5 
24.840000987 54.810002178 109 24.840000987 54.810002178 109.5 24.840000987 55.755002216 108 
24.840000987 55.755002216 108.5 24.840000987 57.240002275 107 24.840000987 57.240002275 107.5 
24.840000987 57.37500228 107 24.840000987 57.37500228 107.5 24.840000987 57.510002285 107 
24.840000987 57.510002285 107.5 24.840000987 57.645002291 107 24.840000987 57.645002291 107.5 
24.840000987 59.535002366 105.5 24.840000987 59.670002371 105.5 24.840000987 59.805002376 105.5 
24.840000987 59.940002382 104.5 24.840000987 59.940002382 105 24.840000987 60.075002387 96.5 
24.840000987 60.075002387 97 24.975000992 32.535001293 125.5 24.975000992 32.670001298 125 
24.975000992 32.670001298 125.5 24.975000992 32.805001304 125 24.975000992 32.805001304 125.5 
24.975000992 32.940001309 125 24.975000992 32.940001309 125.5 24.975000992 33.075001314 125 
24.975000992 33.21000132 125 24.975000992 33.21000132 125.5 24.975000992 33.345001325 126 
24.975000992 53.730002135 110 24.975000992 53.730002135 110.5 24.975000992 53.86500214 110 
24.975000992 53.86500214 110.5 24.975000992 54.000002146 110 24.975000992 54.000002146 110.5 
24.975000992 54.135002151 109.5 24.975000992 54.135002151 110 24.975000992 54.135002151 110.5 
24.975000992 54.945002183 109 24.975000992 54.945002183 109.5 24.975000992 55.080002189 109 
24.975000992 55.080002189 109.5 24.975000992 55.215002194 108.5 24.975000992 55.215002194 109 
24.975000992 55.215002194 109.5 24.975000992 55.350002199 108.5 24.975000992 55.350002199 109 
24.975000992 55.485002205 108 24.975000992 55.485002205 108.5 24.975000992 55.62000221 108 
24.975000992 55.62000221 108.5 24.975000992 60.075002387 97 24.975000992 60.075002387 97.5 
24.975000992 60.075002387 104 25.110000998 31.725001261 125.5 25.110000998 31.860001266 125.5 
25.110000998 31.995001271 125.5 25.110000998 32.130001277 125.5 25.110000998 32.265001282 125 
25.110000998 32.265001282 125.5 25.110000998 32.400001287 124.5 25.110000998 32.400001287 125 
25.110000998 32.535001293 123.5 25.110000998 32.535001293 124.5 25.110000998 32.535001293 125 
25.110000998 32.670001298 123.5 25.110000998 32.670001298 124 25.110000998 32.670001298 124.5 
25.110000998 32.670001298 125 25.110000998 32.670001298 125.5 25.110000998 32.805001304 123.5 
25.110000998 32.805001304 124 25.110000998 32.805001304 124.5 25.110000998 32.805001304 125 
25.110000998 32.940001309 123.5 25.110000998 32.940001309 124 25.110000998 32.940001309 124.5 
25.110000998 32.940001309 125 25.110000998 33.075001314 123.5 25.110000998 33.075001314 124 
25.110000998 33.075001314 124.5 25.110000998 33.075001314 125.5 25.110000998 33.21000132 123.5 
25.110000998 33.21000132 124 25.110000998 33.21000132 124.5 25.110000998 33.21000132 125 
25.110000998 33.345001325 123.5 25.110000998 33.345001325 124 25.110000998 33.345001325 124.5 
25.110000998 53.055002108 110 25.110000998 53.055002108 110.5 25.110000998 53.190002114 110 
25.110000998 53.190002114 110.5 25.110000998 53.325002119 110 25.110000998 53.325002119 110.5 
25.110000998 53.460002124 110 25.110000998 53.460002124 110.5 25.110000998 53.59500213 110 
25.110000998 53.59500213 110.5 25.110000998 60.210002393 97.5 25.110000998 60.210002393 98 
25.110000998 60.210002393 103.5 25.110000998 60.750002414 77 25.110000998 60.750002414 78 
25.245001003 31.725001261 125.5 25.245001003 31.860001266 125.5 25.245001003 31.995001271 125 
25.245001003 31.995001271 125.5 25.245001003 32.130001277 125 25.245001003 32.265001282 124.5 
25.245001003 32.535001293 125.5 25.245001003 32.670001298 123.5 25.245001003 32.805001304 123.5 
25.245001003 33.21000132 126 25.245001003 33.345001325 123 25.245001003 33.48000133 123 
25.245001003 33.48000133 123.5 25.245001003 33.48000133 124 25.245001003 33.615001336 123 
25.245001003 33.615001336 123.5 25.245001003 33.615001336 124 25.245001003 52.650002092 110.5 
25.245001003 52.785002097 110 25.245001003 52.785002097 110.5 25.245001003 52.920002103 110 
25.245001003 52.920002103 110.5 25.245001003 60.210002393 98 25.245001003 60.210002393 98.5 
25.245001003 60.210002393 99 25.245001003 60.210002393 99.5 25.245001003 60.210002393 103 
25.245001003 60.210002393 103.5 25.245001003 60.885002419 77 25.245001003 60.885002419 77.5 
25.380001009 31.860001266 125.5 25.380001009 32.130001277 124.5 25.380001009 32.535001293 123.5 
25.380001009 32.535001293 125.5 25.380001009 33.345001325 122.5 25.380001009 33.48000133 122.5 
25.380001009 33.615001336 122.5 25.380001009 33.750001341 122.5 25.380001009 33.750001341 123 
25.380001009 33.750001341 123.5 25.380001009 33.885001346 122.5 25.380001009 33.885001346 123 
25.380001009 52.515002087 111 25.380001009 52.515002087 111.5 25.380001009 52.650002092 110.5 
25.380001009 52.650002092 111.5 25.380001009 60.210002393 98.5 25.380001009 60.210002393 99 
25.380001009 60.210002393 99.5 25.380001009 60.345002398 100 25.380001009 60.345002398 100.5 
25.380001009 60.345002398 102.5 25.380001009 60.345002398 103 25.380001009 61.020002425 77 
25.515001014 32.400001287 123.5 25.515001014 33.21000132 122.5 25.515001014 33.615001336 120.5 
25.515001014 33.615001336 121.5 25.515001014 33.750001341 124 25.515001014 34.020001352 122.5 
25.515001014 34.155001357 122.5 25.515001014 51.435002044 111.5 25.515001014 51.435002044 112 
25.515001014 51.435002044 112.5 25.515001014 51.570002049 111.5 25.515001014 51.570002049 112 
25.515001014 51.570002049 112.5 25.515001014 51.705002055 111.5 25.515001014 51.84000206 111.5 
25.515001014 51.975002065 111.5 25.515001014 52.110002071 111.5 25.515001014 52.245002076 111.5 
25.515001014 52.380002081 111.5 25.515001014 60.345002398 101 25.515001014 60.345002398 101.5 
25.515001014 60.345002398 102 25.515001014 60.345002398 102.5 25.515001014 61.15500243 77 
25.650001019 32.265001282 123.5 25.650001019 33.48000133 122 25.650001019 33.615001336 122 
25.650001019 33.750001341 120.5 25.650001019 33.750001341 121.5 25.650001019 33.750001341 122 
25.650001019 33.885001346 120.5 25.650001019 33.885001346 121.5 25.650001019 33.885001346 122 
25.650001019 33.885001346 124 25.650001019 34.020001352 121.5 25.650001019 34.020001352 122 
25.650001019 34.155001357 122 25.650001019 34.290001363 122 25.650001019 51.165002033 112 
25.650001019 51.165002033 112.5 25.650001019 51.300002038 112 25.650001019 51.300002038 112.5 
25.650001019 60.345002398 102 25.650001019 61.290002435 77 25.785001025 33.345001325 121.5 
25.785001025 33.48000133 121.5 25.785001025 33.615001336 121.5 25.785001025 33.750001341 121.5 
25.785001025 33.885001346 121.5 25.785001025 33.885001346 124 25.785001025 34.020001352 120.5 
25.785001025 34.020001352 121.5 25.785001025 34.155001357 120.5 25.785001025 34.155001357 121.5 
25.785001025 34.155001357 122 25.785001025 34.290001363 121.5 25.785001025 34.290001363 122 
25.785001025 34.425001368 122 25.785001025 50.760002017 112 25.785001025 50.760002017 112.5 
[...]
CELL_DATA 5241
SCALARS angle%0A[rad] double
LOOKUP_TABLE default
0 0.7853981634 1.2255676215 0.80631608995 0.87258870887 0.23580934936 0.80631608995 0.78068330718 0.6661913312 
0.64290408519 0.57418907981 0.51704819985 0.48929888323 0.50495129806 0.41905676355 0.46605323426 0.43469638938 0.66248431882 
0.40985137496 0.63850111982 0.39072866942 0.36983829276 0.93943445144 0.43445119098 0.41541173188 0.41541173188 0.39725760729 
0.38054924441 0.2850263435 0.2850263435 0.26777989929 0.25665251896 0.24639494108 0.89628707967 0.87348815281 0.85452123247 
0.35984786238 0.49646677855 0.34048617411 0.79179807552 0.12128606904 0.85551775026 0.72538863064 0.68142681446 0.66154468862 
0.63819948196 0.36050147251 0.45076442143 0.40328748139 0.35047164713 0.5619693149 0.50422638627 0.48952274751 0.20586927244 
0.30620189814 0.25183400359 0.19870029324 0.12830660782 0.16077829889 0.45742835835 0.92530362834 0.95054239053 0.97818713083 
1.0085314932 0.98948996441 0.94162972125 0.89237503963 0.84198741695 0.78391879413 0.71891226564 0.68147577085 0.63086847032 
0.579427367 0.6159982082 0.54917253005 0.48236869008 0.523272054 0.46703935559 0.4344867783 0.51548004142 0.49780599498 
0.64059699644 0.67614241761 0.89914322589 1.0283620885 1.2154975526 1.2277460582 1.2277460582 0.34662299654 0.44798107227 
0.61759185439 0.87218234643 1.0732473373 1.1669365462 0.34296535454 0.74516367571 0.72932261673 0.72932261673 0.72932261673 
0.70515628508 0.69006411905 0.69006411905 0.69006411905 0.67580931712 0.67580931712 0.65322790205 0.64015661555 0.61112756139 
0.58907729031 0.62859241722 0.57456034363 0.69348121256 0.070691491368 0.18329101791 0.2102861958 0.46011594093 0.43784831622 
0.42076446154 0.27083854057 0.19365123816 0.015773121132 0.050278634122 0.12564047487 0.18249456607 0.40563415436 0.599565529 
0.71570287735 0.87656440936 1.0855769263 0.41248949431 0.40454161779 0.39679392102 0.4292338434 0.4085256302 0.4701543494 
0.44049443167 0.57929705967 0.55889017328 0.54141194304 0.52489381776 0.34628074189 0.2576119775 0.20846193127 0.36060818067 
0.39809768751 0.41504342908 0.3533053586 0.31328913956 0.26350147642 0.19969984875 0.086340063644 0.073287824194 0.26632854205 
0.37387196711 0.64223762943 0.69791489912 0.52665987754 0.54382480606 0.55116927502 0.57373270876 0.55994121789 0.54571865794 
0.53498237015 0.52882478946 0.59077652665 0.47826483651 0.37839304468 0.28307665201 0.16806350423 0.31787642901 0.29510459102 
0.25639449786 0.24772530818 0.25488148704 0.2012993954 0.18685796678 0.23285112974 0.2727471426 0.19000990215 0.20721696046 
0.46839449866 0.63716291891 0.86669582343 0.21999636026 0.057289427176 0.042188169549 0.088768853664 0.13589833121 0.20155835765 
0.26553083316 0.27036876844 0.43317310219 0.33497969614 0.22071752722 0.17897240968 0.32608295501 0.60465719707 0.78869168227 
0.29108509513 0.1473047909 0.17088173979 0.2746070622 0.3155087214 0.36765558677 0.48725621668 0.57635566834 0.56818031951 
0.61137284536 0.64424024946 0.66823795149 0.71309905146 0.7736935286 0.80994873797 0.70022645096 0.61829371449 0.60343218912 
0.58164229625 0.48789642569 0.44512476289 0.4173344617 0.41476378317 0.32190435151 0.28517878343 0.18900978246 0.20249286931 
0.21315350645 0.094000103633 0.082523416962 0.26193533325 1.3074506302 0.079152454582 0.08706536261 0.13011343771 0.071371263146 
0.20946417671 0.1118747596 0.081414495636 0.052086018905 0.052086018905 0.052086018905 0.058219427122 0.058219427122 0.058219427122 
0.004078108434 0.060352812689 0.11483362428 0.16925246984 0.23941183567 0.29281570075 0.345874632 0.39849449497 0.4506213261 
0.42546622619 0.45140491663 0.42564196418 0.39935111621 0.3785150126 0.35871166337 0.27409822906 0.12030735219 0.026954162841 
0.072594773962 0.093718826816 0.060300643582 0.060300643582 0.060300643582 0.82475518841 1.0801610637 1.1917411687 1.2988295804 
1.4485435064 1.415315324 1.3815339011 1.3471632252 1.4943672745 1.4567186782 1.4276971985 1.3989756481 1.3439656565 
1.3072276906 1.2760609696 1.2454728833 1.1697980268 1.1375852549 1.1063042703 1.0090656398 0.977515593 0.9472528032 
0.91825216827 0.80032360292 0.773293392 0.74768138264 0.72340988824 0.57223220691 0.55303142639 0.16473038945 0.18502536664 
0.29537216001 0.22389712534 0.33541632829 0.42520079162 0.44844250015 0.47274734549 0.50937695912 0.51995643843 0.65565475917 
0.68340098923 0.71237225569 0.74259953652 0.77410736769 0.81403524579 0.85093648985 0.88633491926 0.92301418265 0.96094091806 
0.80187685237 0.62190218064 0.67781456443 0.40602603164 0.2869782033 0.077242798056 0.20243047004 0.38203575553 0.86539835476 
1.5843392917 1.7272620549 1.901632287 0.86949021643 0.84320403823 0.84013347601 0.83891724237 0.83772876935 0.80823507464 
0.78102695281 0.67073477973 0.64883712916 0.63206033267 0.62243055276 0.52417173818 0.55925895444 0.49175388435 0.54292810333 
0.67257862485 0.57695518992 0.26614024585 0.14545820793 0.13360624064 0.12650648857 0.12594439124 0.08490179345 0.11192224264 
0.14365761617 0.1889923963 0.2415657071 0.30378841455 0.38851995013 0.47202119624 0.5855005855 0.57984272987 0.55715637766 
0.53600987751 1.2573017092 1.140638743 0.68425026882 0.66511997955 1.0754367986 1.0151235875 1.0007642488 0.99560116011 
0.99185062136 1.0032996997 0.93535870892 0.95260074759 0.87705057246 0.77803696578 0.66971999169 0.58424720342 0.45514614204 
0.35178983933 0.34764126433 0.35171764874 0.39383756536 0.27687367037 0.26745813877 0.077176797267 0.097262896515 0.12532356509 
0.1281455642 0.15519091816 0.39926358531 0.3400385866 0.33173185082 0.40676186985 0.37772278343 0.46656095527 0.45261138124 
0.43941866162 0.36915623408 0.36915623408 0.36915623408 0.36915623408 0.34153175251 0.34153175251 0.27137200866 0.32858729288 
0.29480347361 0.35513507297 0.41455418704 0.35513507297 0.45224477241 0.3311284759 0.62540083158 0.59502270004 1.2680613364 
1.1703668111 0.28442391727 0.64015661555 0.64015661555 0.61900319221 0.60732430813 0.60732430813 0.76018843699 0.72561445011 
0.72603405552 0.72997337712 0.74203826232 0.77345575639 0.70858110085 0.7420948473 0.22472085698 0.29374987041 0.14118365907 
0.87202755564 0.88256771133 0.87557841572 0.8502421722 0.3584223759 0.71706754238 0.23091363258 0.32835601746 0.62931835119 
0.5960317638 0.55089101319 0.44621298793 0.46903746431 0.48551041634 0.45746464225 0.41246669298 0.42663795774 0.38653611034 
0.89204925353 0.81087703347 0.78649298446 0.76324023373 0.74106529862 0.66063882165 0.66063882165 0.72410544525 0.15219456409 
0.35406125351 0.70218980001 0.67490871775 0.68297679436 0.57516925158 0.56540963098 0.53515513266 0.52976914763 0.611755041 
0.59903540739 0.52552213625 0.75255571964 0.78816393386 0.78210078189 0.78644238358 0.81117592826 0.8196285627 0.55051399184 
0.20081000895 0.24457888617 0.38408800534 0.77825537046 0.79422496924 0.73718880336 0.59619263137 0.52916649596 0.56233321618 
0.45212424551 0.32445296094 0.40192006628 0.26340999237 0.20534506006 0.20534506006 0.10762212133 0.076917383238 0.20033347225 
0.22736376552 0.34553190643 0.38151422403 0.43048022606 0.50806909466 0.55888349024 0.63953039575 0.73768356201 0.7405654933 
0.70336726624 0.65309083869 0.66007637114 0.63373812877 0.6411694284 0.6602402235 0.5374198244 0.60615308469 0.66747450953 
0.75410141895 0.61548296684 0.37181913408 0.23178059822 0.42923403975 0.42780178293 0.44725795032 0.3945340112 0.3451052694 
0.34630981246 0.15156375429 0.26012800226 0.097044096901 0.060300643582 0.26299950592 0.2829941993 0.23287011971 0.15920189999 
0.14974897798 0.13028657557 0.13028657557 0.11050609545 0.093383961422 0.1296210154 0.20410210032 0.17695071872 0.086628718016 
0.14002032861 0.26210048507 0.1538032217 0.2829941993 0 1.2060444979 1.1272264844 0.24077391826 1.1067409284 
0.32352897404 1.0076772679 0.14540089785 1.1067409284 0.95424391968 1.0228359635 0.37268484915 0.12079565223 0.35292583076 
0.30414750973 1.0813991677 0.12604709498 1.1021698528 0.28421166723 0.38916303848 1.1235462311 0.22540533801 1.1197090461 
1.0938861391 0.34917901292 1.0737042564 1.1117094456 1.1878232793 1.3344098745 1.1021698528 1.0483645415 1.2027906253 
0.95695317242 1.0541466755 0.97673688459 1.0541466755 0.25801501848 0.32039508972 1.1711308663 1.328408642 0.67598721052 
0.5467243636 0.41824062059 1.2932601994 0.43479545568 0.093608866224 0.081532056935 0.20078420064 0.17584875889 0.39862325695 
0.65317261113 0.40361560508 0.29908420957 0.16972340453 0.34098688634 0.29800448177 0.14812544005 0.14901186477 0.12174859519 
0.094385831956 0.060420259178 0.073244805777 0.17884080252 0.27635640357 0.3919067432 0.57135428702 0.70078681258 0.11204772279 
0.35403342752 0.20841514172 0.50484035399 1.3845954757 1.3587383245 0.28867290137 1.1161903725 1.090229335 1.0334651136 
1.0334651136 1.1176649011 0.23761345247 1.0840175132 1.0585313001 1.0483645415 1.0217582119 0.99599054601 1.1720891883 
1.1839128224 1.1991428185 1.2411708486 1.0277125322 1.0493299465 1.1228558285 1.1200943084 1.1365317052 0.97602014924 
0.93159665252 0.19555310356 0.095654851587 0.32323834208 0.31753735361 0.28222840846 0.19723316051 0.17495210748 0.11399172115 
0.13065901236 0.74759353471 0.2507533095 0.99875664775 1.0277125322 1.0020957101 0.93459471021 0.93459471021 0.85375159096 
0.9515821148 0.77443402946 0.76149954192 0.70616628238 0.72367466771 0.91238287678 0.88839713067 0.81756079319 0.39834940569 
0.18312530479 0.226132637 0.47599334461 0.41653322165 0.29326540116 0.14875134387 0.19092850092 0.39470889334 0.54869636937 
0.7702607396 0.79397418693 0.65913553736 0.70867085024 0.60969100357 0.084038233537 0.13028657557 1.163046581 0.99875664775 
0.9957955508 0.9085609886 1.1972814637 0.92721416549 0.81756079319 0.72499544082 0.66732782657 0.61164695254 0.60495993957 
0.72655849606 0.65099532381 0.68702585847 0.8239859464 0.72188102403 0.60233851813 0.60495012924 0.76565426748 0.59873712723 
0.40426741244 0.6969251786 0.67042064253 0.6454882997 0.56372438387 0.53724888371 0.51240765316 0.4907150027 0.38656815832 
0.39780476114 0.38397602008 0.39715648417 0.61370922666 0.54550183485 0.61709089187 1.333757995 0.57928064687 0.52591802344 
0.48999393786 0.45970943797 0.4357631198 0.40745961202 0.46681635988 0.3217505544 0.7853981634 0.83226511985 1.1272264844 
0.9515821148 0.81087703347 0.69973841704 0.59164732404 0.96647862953 1.090229335 0.90712926478 0.76451501414 0.65445995341 
0 1.3158046696 0.20543858018 0.32398834376 0.34542369805 0.33722202482 0.35668891982 0.42353265709 0.39943953917 
0.62098659637 0.52662727143 0.49934672168 0.97365261326 0.94118486441 0.9101832124 0.88060620459 0.72665113017 0 
1.2060444979 0.52206169236 0.66063882165 0.67682013053 0.519058165 0.55696351027 1.1450604046 0.99346004109 1.3101041717 
1.2658985472 1.3446082361 1.543945829 0.81789278628 0.41925153159 1.1067409284 0.94770519701 0.46803215074 0.38225046215 
0.71955335487 0.73777247019 0.70787280714 0.66548555914 0.64129051109 0.69791489912 0.69791489912 0.54211472027 0.71405049504 
0.48551783196 0.54211472027 0.8224344958 0.69791489912 0.35239083299 0.33925951101 1.2577204277 1.3375404688 1.272316656 
1.7222042376 0.20121015817 0.12016592259 0.085174925961 1.2930679966 1.3829723415 0.66105174706 0.60491068303 0.55660725798 
1.177450412 0 0.26371184446 1.5007801457 1.6467978923 0 0.41925153159 1.2255676215 1.1272360846 
0.42517321756 1.1207146306 0.81682209675 0.78082731616 0.74676649921 0.61257617433 0.58053282204 0.55038151732 0.52215345859 
0.36527833159 0.36074871523 0.35305270071 0.40021818127 0.31015882861 1.2082021802 0.91328993932 1.9704617873 0.62163404746 
0.34362190627 0.87713471123 0.84302929385 0.81087703347 0.78057583128 0.75202136532 0.7853981634 0.85653389163 0.33825024423 
0.11005506072 0.11005506072 0.33825024423 0.58888678698 0.76451501414 1.7863668858 0.21866894587 0.043450895392 0.76958810106 
0.7482668269 1.652685726 0.72616472063 0.76998124669 1.3013936187 2.1491224482 2.2217553074 2.2744931959 0.96750607556 
0.95164889117 0.98861862887 1.1429326807 1.0003009545 0.97000594307 0.82820421943 0.54508472724 0.36067414184 0.16913328693 
0.28903459613 0.43746724259 0.45013897438 0.07677189127 0.18311081726 0.07677189127 0.043450895392 0.21866894587 0.3217505544 
2.3188740735 1.0579712637 1.0117388589 0.96803310479 0.92680595056 0.88798093014 0.85146122171 0.81713650769 0.52361002767 
0.5620026218 0 0.13418873322 0.26371184446 0.3217505544 0.44610554894 0.29849893159 0.57050674059 0.53906702999 
0.43397280029 0.66105174706 1.4147269342 0.18311081726 0.463647609 0.40489178629 0.35877067027 0.3217505544 0.75633915388 
0.71706754238 1.1498649601 1.0978755035 0.54384507806 0.30464413374 0.087856193748 0.24629498332 0.10877440316 0.25151730568 
0.48623986204 0.7270980899 0.60974656109 1.3093481855 1.1891188229 1.0794291858 1.5456229297 1.7254420071 2.359016653 
2.4516791808 2.4624867128 2.4777036513 0.74211250927 0.87804594399 0.88998747844 0.74695555357 0.86564111876 0.90292391706 
0.43644647555 0.78552755478 1.090229335 1.3625626287 0.98746747411 1.060230399 0.43997567542 0.61414446779 1.5304055523 
1.7111175363 0.28955165499 0.58334009685 1.1153099323 1.2073331871 1.2924991306 0.72664234068 0.84415398611 0.30288486837 
2.5602953753 0.83423448591 1.6922559818 0.21667258921 0.93466146247 0.90712926478 0.88073340348 2.486064763 0.63754877913 
0.55303142639 0.67851096472 1.631750961 1.5707963268 1.2144290391 1.3241626357 1.2659093589 1.2097142018 0.30882087413 
0.284890936 0.7994860037 0.48367525722 0.48469702048 0.37132082999 1.3566707448 1.5707963268 1.2281497117 0 
0 1.1926884644 0.9511104301 0.32708307781 0.68909389673 0.58387714003 0.60732430813 0.50104445041 0.50104445041 
0.48469702048 0.46770947695 0.46770947695 0.60732430813 0.45212424551 2.3561944902 2.2896263264 2.2142974356 2.1293956421 
0.75152358087 1.3093481855 0.90128984786 0.83226511985 0.19739555985 1.0766787417 0.90775861437 0.67374169674 0.84781011337 
1.7385641421 1.0252944919 0.47605841935 0.1418970546 0.89834120371 1.0503079245 0.94316849243 1.2761622182 0.82167259273 
1.0809830576 1.0518268008 0.7614713525 0.9357651147 0.69761073267 0.73158354677 0.66076716243 1.0263041835 1.1009249642 
0.85697877083 0.45266988911 0.094108942275 0.095531416423 0.14469906299 0.14469906299 0.14469906299 0.14469906299 0.14175829512 
0.15713615862 0.17798651101 0.27188640345 0.27551835019 0.27954966447 0.53789412127 0.53564629694 0.54302709684 0.55108195951 
0.55990048956 0.56958789929 0.56253325139 0.56471935443 0.29542133158 0.29364109879 0.29179417141 0.28990336797 0.27690144892 
0.26520413394 0.25502775985 0.12952466834 0.12799128374 0.13242001224 0.11242713083 0.14574812671 0.1891990221 0.24795484482 
0.3310960767 0.45545107125 0.6528466311 0.62024948598 1.0050235031 1.0906783461 0.87391846239 1.0906783461 1.1965589117 
0.95633987957 0.32481029475 1.2632186678 1.30375879 1.1776945605 1.2315078307 1.4029831991 1.2929385566 1.1861699337 
1.0389711212 0.67130465249 0.90501519836 0.62825836758 0.92603129519 0.94374242081 1.0038410345 1.0810692153 1.0281037568 
1.110063451 1.1149414606 1.0526531422 1.0616054117 1.0016457528 1.0151669966 0.93392655924 0.93837336002 0.84919188599 
0.78261990671 0.68276418585 0.55660936274 0.41074467423 0.27439544199 0.27049588477 0.31238926473 0.37986964992 0.13616393991 
0.35098004131 0.33388280853 0.31831966011 0.30409960895 0.2850263435 0.2850263435 0.27299182485 0.22248188866 0.20535904712 
0.64563208814 0.14921150317 0.87564580845 1.0236498444 0.96732018742 1.2871504053 0.86539835476 0.86539835476 2.126632413 
2.1028240752 2.3369711677 1.4900288207 1.5398674208 1.5423301902 1.4803945398 1.4313026748 1.3703573379 1.3207715554 
1.2427121629 1.0632072768 0.9534849818 0.93831560991 0.87065134216 0.87568677841 0.88908548232 0.62493302552 0.64704113181 
0.72086869459 0.84374869743 0.87547269531 0.65378741686 0.72720877846 0.65219934781 0.559383408 0.60465141224 0.60465141224 
0.60465141224 1.0713893434 1.0828087267 0.98877230741 0.90260565933 0.66678129591 0.70317541288 0.63924800377 0.62865223571 
0.50910251675 0.53062673931 0.48674267214 0.50574788765 0.54188335918 0.42529661639 0.44204789845 0.53191889491 0.31704033492 
0.05671964225 1.5868126163 1.5659311504 1.4943116462 1.467852805 1.4544555934 1.3812690318 1.3562708266 1.3324375662 
1.2878753257 1.2630423994 1.2400073741 1.2189589109 1.1248511644 1.1037458815 1.0869750087 1.0762929921 1.070010839 
1.0689308914 0.97335055493 0.98750142289 1.0120467473 1.0499932402 1.0117109715 1.0933385067 1.2050908699 1.3524078062 
0.48010063521 0.3217505544 0.27829965901 0.23684876095 1.3174586739 1.1913549984 0.9112310142 0.89319995413 1.4182418429 
1.2182364117 0.63819948196 0.63819948196 2.1688979835 2.1332164614 1.3209146119 1.1877929056 0.93936015296 0.85962629928 
1.1759622228 0.81223248573 1.0191002377 0.40706987987 0.64323082179 0.41541173188 0.76874276945 1.2260360492 0.94956315556 
0.72757783448 0.38603303415 0.82913352827 1.0014056085 0.99755571206 1.0032748441 0.364713152 0.82600162967 0.89627394956 
0.85559794851 0.78413515945 0.71249564219 0.64388432567 0.58356402795 0.51221635135 0.45898651613 0.35635002478 0.25093684279 
0.16437719723 0.12508940805 0.15264212289 0.40457089498 0.5166480649 0.71482614372 0.98460557443 0.95240379985 0.92161248368 
0.89219558447 0.82485644016 0.79786255874 0.77221872916 0.74785744135 0.67561330451 0.65403243309 0.63360171922 0.61424736413 
0.53618034419 0.49230799085 0.70271204376 0.40177156704 0.1321370098 0.20848722583 0.19692594999 0.16685119831 0.16555536833 
0.15324212666 0.14164477675 0.15902730985 0.24191788185 0.34058039249 0.35531790444 0.71254147414 0.73465441806 0.5037894948 
0.57242428538 0.56733787616 0.57959881953 0.58720018791 0.60595538156 0.64365234741 0.74522215652 0.61622423287 0.37915157744 
0.71863414759 0.56284277072 0.59441100849 0.49039852897 0.38326427964 0.98614326324 0.96917881842 0.34553486353 0.82389771002 
1.1876981361 1.1487713072 1.2306959224 0.75096820448 1.0038410345 0.97007868867 0.86484648713 0.7910192128 0.68369100822 
0.61560774279 0.56875031089 0.53685236104 0.50096058766 0.48316198794 0.53052765888 0.51573875384 0.49977163299 0.62068386657 
0.59778982393 0.67942433084 0.96823697585 0.76838440516 0.72948327075 0.69114671266 0.64916328915 0.61993265182 0.59477098079 
0.57607284999 0.60066317424 0.60235741737 0.64247889211 0.74121986607 0.87509420787 1.0667491171 0.90419572384 0.92842627211 
0.95750335549 0.99264637008 1.0353754491 0.74277795952 1.0875252657 0.68691203012 0.66847910203 0.64563208814 0.62575356419 
0.62615053339 0.65921606253 0.81358738675 0.99369662368 0.89435215646 1.0688876062 0.83882303132 0.34409807194 0.40690065713 
0.72336240739 0.59680867015 0.2801079753 0.52048862598 0.45809178938 0.45654893309 0.48150601167 0.64191489119 0.62326316533 
0.65494278551 0.66522610731 0.6785452339 0.69644293067 0.70289828338 0.76739014129 0.83193748373 0.95491022177 0.4181012619 
0.32006229425 0.33337873161 0.41411834083 0.64515043913 0.38709739543 0.41124273021 0.53731442312 0.85886219456 0.62668217707 
0.92480522987 0.6119958596 0.89712652764 0.46354695929 0.81868691044 0.42456339474 0.79306458253 0.40054192076 0.76867292081 
0.40330989218 0.74545235446 0.35103759261 0.65403243309 0.46474414045 0.60874632667 1.0580132259 1.0285435086 0.9992082638 
0.95894031881 0.8705145328 0.83237883343 0.85993940955 1.1446520253 1.0767190436 1.1276569454 1.1857648581 1.2521761672 
1.3280688297 1.4145320097 1.512334101 1.6069113257 1.7303797655 1.8606752065 1.8435953601 0.24108857413 0.55891034706 
0.45349375738 0.45349375738 0.45349375738 0.45349375738 0.45349375738 0.45349375738 0.45349375738 0.46772309629 0.45212424551 
0.46770947695 2.3954964001 0.61925779734 0.25893153047 0.40544377066 0.6691462601 0.29736514522 0.61240387871 0.12062366858 
0.68286405989 0.15660187698 0.82172333657 0.30499234681 1.0024111752 0.58800260355 0.13651059985 0.18444982448 0.58836319656 